ITEM: TIMESTEP
0
ITEM: NUMBER OF ATOMS
2025
ITEM: BOX BOUNDS xy xz yz pp pp pp
-1.6285180000000000e+01 2.8348340000000000e+01 -1.6285180000000000e+01
-1.2419116000000001e+01 2.4838083999999998e+01 1.4075400000000000e+00
0.0000000000000000e+00 2.7987366999999999e+01 -1.2419116000000001e+01
ITEM: ATOMS id type x y z vx vy vz fx fy fz 
31 1 6.18845 -0.49174 1.12117 0 0 0 0 0 0 
32 2 2.98511 -0.75254 2.2264 0 0 0 0 0 0 
33 3 3.79594 0.291281 1.33556 0 0 0 0 0 0 
34 4 3.79594 0.291281 1.38556 0 0 0 0 0 0 
44 1 4.07072 2.59439 1.11949 0 0 0 0 0 0 
45 2 0.596965 2.81793 2.2292 0 0 0 0 0 0 
46 3 -0.47492 1.96785 1.34396 0 0 0 0 0 0 
47 4 -0.47492 1.96785 1.39396 0 0 0 0 0 0 
48 3 1.9134 3.26626 1.33752 0 0 0 0 0 0 
49 4 1.9134 3.26626 1.38752 0 0 0 0 0 0 
21 1 -0.738295 1.71705 5.22695 0 0 0 0 0 0 
23 6 0.772072 -0.215311 5.51884 0 0 0 -19.3263 37.4449 -23.5183 
24 8 0.772072 -0.215311 6.51884 0 0 0 -9.15182 14.0827 -14.3218 
29 6 4.79784 -1.47719 5.56055 0 0 0 2.41113 1.51195 8.90147 
30 8 4.79784 -1.47719 6.56055 0 0 0 0.269905 0.195612 -8.96198 
37 3 2.48586 0.030481 3.63613 0 0 0 0 0 0 
38 4 2.48586 0.030481 3.68613 0 0 0 0 0 0 
39 2 2.47976 1.50773 4.21631 0 0 0 0 0 0 
40 3 2.42614 1.50835 5.77997 0 0 0 0 0 0 
41 4 2.42614 1.50835 5.82997 0 0 0 0 0 0 
42 3 3.85052 2.36526 3.8396 0 0 0 0 0 0 
43 4 3.85052 2.36526 3.8896 0 0 0 0 0 0 
52 3 1.11579 2.19201 3.62438 0 0 0 0 0 0 
53 4 1.11579 2.19202 3.67438 0 0 0 0 0 0 
61 7 1.44074 -1.3648 6.04109 0 0 0 0 0 0 
66 5 -0.339556 -0.385557 3.50095 0 0 0 0 0 0 
67 7 -0.339556 -0.385557 4.50095 0 0 0 0 0 0 
68 7 -0.339556 0.614443 3.50095 0 0 0 0 0 0 
11 1 3.10594 -2.46989 9.98733 0 0 0 0 0 0 
22 1 1.147 -1.84128 9.04661 0 0 0 0 0 0 
25 6 4.46179 -1.59641 8.48133 0 0 0 -3.73904 -2.94817 -7.7346 
26 8 4.46179 -1.59641 7.48133 0 0 0 -0.520555 0.161615 6.98379 
55 7 1.69609 -3.49032 9.76035 0 0 0 0 0 0 
60 5 1.44074 -1.3648 7.04109 0 0 0 0 0 0 
62 7 1.44074 -0.364799 7.04109 0 0 0 0 0 0 
1 1 1.48889 -3.5965 13.1401 0 0 0 0 0 0 
2 2 5.02075 -3.8573 12.0349 0 0 0 0 0 0 
3 3 3.80384 -4.38449 12.9117 0 0 0 0 0 0 
4 4 3.80384 -4.38449 12.9617 0 0 0 0 0 0 
5 3 -0.903617 -2.81348 12.9257 0 0 0 0 0 0 
6 4 -0.903617 -2.81348 12.9757 0 0 0 0 0 0 
9 3 4.52151 -3.07428 10.6252 0 0 0 0 0 0 
10 4 4.52151 -3.07428 10.6752 0 0 0 0 0 0 
18 3 3.15144 -0.912745 10.6369 0 0 0 0 0 0 
19 4 3.15144 -0.912745 10.6869 0 0 0 0 0 0 
54 5 1.69609 -3.49032 10.7603 0 0 0 0 0 0 
56 7 1.69609 -2.49032 10.7603 0 0 0 0 0 0 
407 4 5.89042 -5.07995 11.498 0 0 0 0 0 0 
93 1 6.89222 -6.7013 15.1149 0 0 0 0 0 0 
94 2 3.68888 -6.9621 16.2201 0 0 0 0 0 0 
95 3 4.49971 -5.91828 15.3292 0 0 0 0 0 0 
96 4 4.49971 -5.91828 15.3792 0 0 0 0 0 0 
102 1 4.77449 -3.61517 15.1132 0 0 0 0 0 0 
103 2 1.30073 -3.39162 16.2229 0 0 0 0 0 0 
104 3 0.22885 -4.24171 15.3376 0 0 0 0 0 0 
105 4 0.22885 -4.24171 15.3876 0 0 0 0 0 0 
106 3 2.61717 -2.9433 15.3312 0 0 0 0 0 0 
107 4 2.61717 -2.9433 15.3812 0 0 0 0 0 0 
89 6 1.47584 -6.42487 19.5125 0 0 0 2.77728 -8.16446 23.987 
90 8 1.47584 -6.42487 20.5125 0 0 0 -2.26901 -1.74771 -5.11544 
91 6 5.50161 -7.68675 19.5542 0 0 0 -3.78904 7.28378 7.41854 
92 8 5.50161 -7.68675 20.5542 0 0 0 3.40593 -2.51484 -6.47054 
99 3 3.18963 -6.17908 17.6298 0 0 0 0 0 0 
100 4 3.18963 -6.17908 17.6798 0 0 0 0 0 0 
101 1 1.76457 -5.11527 18.2826 0 0 0 0 0 0 
110 3 1.81956 -4.01754 17.6181 0 0 0 0 0 0 
111 4 1.81956 -4.01754 17.6681 0 0 0 0 0 0 
112 5 0.364214 -6.59511 17.4946 0 0 0 0 0 0 
113 7 0.364214 -6.59511 18.4946 0 0 0 0 0 0 
114 7 0.364214 -5.59511 17.4946 0 0 0 0 0 0 
118 5 3.12991 -4.70121 19.7737 0 0 0 0 0 0 
120 7 3.12991 -5.70121 19.7737 0 0 0 0 0 0 
124 5 4.55429 -3.8443 17.8333 0 0 0 0 0 0 
126 7 4.55429 -4.8443 17.8333 0 0 0 0 0 0 
87 1 4.11761 -6.29085 21.1797 0 0 0 0 0 0 
121 5 5.16556 -7.80597 22.475 0 0 0 0 0 0 
122 7 5.16556 -7.80597 21.475 0 0 0 0 0 0 
123 7 5.16556 -6.80597 22.475 0 0 0 0 0 0 
1614 3 0.083977 -7.80659 24.0387 0 0 0 0 0 0 
1615 4 0.133977 -7.80659 24.0387 0 0 0 0 0 0 
69 1 2.19266 -9.80606 27.1338 0 0 0 0 0 0 
70 2 5.72452 -10.0669 26.0286 0 0 0 0 0 0 
71 3 4.50761 -10.594 26.9054 0 0 0 0 0 0 
72 4 4.50761 -10.594 26.9554 0 0 0 0 0 0 
73 3 -0.199847 -9.02304 26.9194 0 0 0 0 0 0 
74 4 -0.199847 -9.02304 26.9694 0 0 0 0 0 0 
77 3 5.22528 -9.28384 24.6189 0 0 0 0 0 0 
78 4 5.22528 -9.28384 24.6689 0 0 0 0 0 0 
85 3 3.85521 -7.1223 24.6306 0 0 0 0 0 0 
86 4 3.85521 -7.1223 24.6806 0 0 0 0 0 0 
467 4 6.59419 -11.2895 25.4917 0 0 0 0 0 0 
35 3 -2.3031 4.92979 1.34955 0 0 0 0 0 0 
36 4 -2.3031 4.92979 1.39955 0 0 0 0 0 0 
50 3 -0.216526 4.23433 2.8133 0 0 0 0 0 0 
51 4 -0.216526 4.23433 2.8633 0 0 0 0 0 0 
157 1 2.11715 5.71778 1.12117 0 0 0 0 0 0 
158 2 -1.08619 5.45698 2.2264 0 0 0 0 0 0 
159 3 -0.27536 6.5008 1.33556 0 0 0 0 0 0 
160 4 -0.27536 6.5008 1.38556 0 0 0 0 0 0 
20 1 -0.852901 3.7041 4.80714 0 0 0 0 0 0 
58 7 0.660287 2.62172 6.13625 0 0 0 0 0 0 
163 3 -1.58544 6.24 3.63613 0 0 0 0 0 0 
164 4 -1.58544 6.24 3.68613 0 0 0 0 0 0 
178 5 -4.41085 5.82396 3.50095 0 0 0 0 0 0 
179 7 -4.41085 5.82396 4.50095 0 0 0 0 0 0 
181 5 0.726542 4.73233 5.56055 0 0 0 0 0 0 
182 7 0.726542 4.73233 6.56055 0 0 0 0 0 0 
183 7 0.726542 5.73233 5.56055 0 0 0 0 0 0 
27 6 -0.705351 1.16435 8.42233 0 0 0 -6.85506 -4.635 -2.5605 
28 8 -0.705351 1.16435 7.42233 0 0 0 0.367408 -1.13609 7.7255 
57 5 0.660287 2.62171 7.13625 0 0 0 0 0 0 
59 7 0.660287 1.62171 7.13625 0 0 0 0 0 0 
63 5 2.76219 1.62757 8.70075 0 0 0 0 0 0 
64 7 2.76219 1.62757 7.70075 0 0 0 0 0 0 
65 7 2.76219 0.62757 8.70075 0 0 0 0 0 0 
188 7 -2.3752 2.7192 9.76035 0 0 0 0 0 0 
7 3 1.81912 1.12957 11.448 0 0 0 0 0 0 
8 4 1.81912 1.12957 11.498 0 0 0 0 0 0 
12 1 -0.628832 -0.510368 13.1418 0 0 0 0 0 0 
13 2 2.63261 -0.286826 12.0321 0 0 0 0 0 0 
14 3 1.56073 -1.13691 12.9173 0 0 0 0 0 0 
15 4 1.56073 -1.13691 12.9673 0 0 0 0 0 0 
16 3 -2.78615 0.161502 12.9238 0 0 0 0 0 0 
17 4 -2.78615 0.161502 12.9738 0 0 0 0 0 0 
128 2 0.949458 2.35222 12.0349 0 0 0 0 0 0 
129 3 -0.267455 1.82503 12.9117 0 0 0 0 0 0 
130 4 -0.267455 1.82503 12.9617 0 0 0 0 0 0 
135 3 0.450212 3.13524 10.6252 0 0 0 0 0 0 
136 4 0.450212 3.13524 10.6752 0 0 0 0 0 0 
187 5 -2.3752 2.7192 10.7603 0 0 0 0 0 0 
97 3 -1.59933 -1.27977 15.3432 0 0 0 0 0 0 
98 4 -1.59933 -1.27977 15.3932 0 0 0 0 0 0 
108 3 0.487244 -1.97523 16.807 0 0 0 0 0 0 
109 4 0.487244 -1.97523 16.857 0 0 0 0 0 0 
226 1 2.82092 -0.491777 15.1149 0 0 0 0 0 0 
227 2 -0.382419 -0.752577 16.2201 0 0 0 0 0 0 
228 3 0.42841 0.291244 15.3292 0 0 0 0 0 0 
229 4 0.42841 0.291244 15.3792 0 0 0 0 0 0 
88 1 -0.149131 -2.50546 18.8008 0 0 0 0 0 0 
116 7 1.36406 -3.58784 20.1299 0 0 0 0 0 0 
119 7 3.12991 -4.70121 20.7737 0 0 0 0 0 0 
125 7 4.55429 -3.8443 18.8333 0 0 0 0 0 0 
224 6 1.43031 -1.47723 19.5542 0 0 0 3.76425 1.72316 4.50309 
225 8 1.43031 -1.47723 20.5542 0 0 0 0.661559 0.720069 -7.56318 
232 3 -0.881666 0.030444 17.6298 0 0 0 0 0 0 
233 4 -0.881666 0.030444 17.6798 0 0 0 0 0 0 
253 7 -1.92679 -1.36484 20.0348 0 0 0 0 0 0 
261 5 -3.70708 -0.385594 17.4946 0 0 0 0 0 0 
262 7 -3.70708 -0.385594 18.4946 0 0 0 0 0 0 
115 5 1.36406 -3.58784 21.1299 0 0 0 0 0 0 
117 7 1.36406 -4.58784 21.1299 0 0 0 0 0 0 
203 1 -0.261585 -2.46992 23.981 0 0 0 0 0 0 
219 8 1.09427 -1.59645 21.475 0 0 0 -0.696707 -0.32714 8.13087 
252 5 -1.92679 -1.36484 21.0348 0 0 0 0 0 0 
256 7 -1.67143 -3.49035 23.754 0 0 0 0 0 0 
75 3 2.52289 -5.07999 25.4417 0 0 0 0 0 0 
76 4 2.52289 -5.07999 25.4917 0 0 0 0 0 0 
79 1 0.074938 -6.71993 27.1355 0 0 0 0 0 0 
80 2 3.33638 -6.49638 26.0258 0 0 0 0 0 0 
81 3 2.2645 -7.34647 26.911 0 0 0 0 0 0 
82 4 2.2645 -7.34647 26.961 0 0 0 0 0 0 
83 3 -2.08238 -6.04806 26.9175 0 0 0 0 0 0 
84 4 -2.08238 -6.04806 26.9675 0 0 0 0 0 0 
194 2 1.65323 -3.85734 26.0286 0 0 0 0 0 0 
195 3 0.436315 -4.38453 26.9054 0 0 0 0 0 0 
196 4 0.436315 -4.38453 26.9554 0 0 0 0 0 0 
201 3 1.15398 -3.07432 24.6189 0 0 0 0 0 0 
202 4 1.15398 -3.07432 24.6689 0 0 0 0 0 0 
255 5 -1.67143 -3.49035 24.754 0 0 0 0 0 0 
161 3 -6.3744 11.1393 1.34955 0 0 0 0 0 0 
162 4 -6.3744 11.1393 1.39955 0 0 0 0 0 0 
168 1 -0.000574 8.80391 1.11949 0 0 0 0 0 0 
169 2 -3.47433 9.02745 2.2292 0 0 0 0 0 0 
170 3 -4.54622 8.17737 1.34396 0 0 0 0 0 0 
171 4 -4.54622 8.17737 1.39396 0 0 0 0 0 0 
172 3 -2.15789 9.47578 1.33752 0 0 0 0 0 0 
173 4 -2.15789 9.47578 1.38752 0 0 0 0 0 0 
174 3 -4.28782 10.4438 2.8133 0 0 0 0 0 0 
175 4 -4.28782 10.4438 2.8633 0 0 0 0 0 0 
151 1 -4.80959 7.92657 5.22695 0 0 0 0 0 0 
153 6 -1.64515 7.71787 5.77997 0 0 0 -2.46002 -4.44955 11.7451 
154 8 -1.64515 7.71787 6.77997 0 0 0 1.19287 0.498066 -8.99923 
165 1 -3.0105 7.30381 4.28893 0 0 0 0 0 0 
166 6 -0.22078 8.57478 3.8396 0 0 0 3.29393 3.81384 6.99222 
167 8 -0.22078 8.57478 4.8396 0 0 0 -0.41496 -0.720996 -7.43171 
176 3 -2.95551 8.40154 3.62438 0 0 0 0 0 0 
177 4 -2.95551 8.40154 3.67438 0 0 0 0 0 0 
180 7 -4.41085 6.82396 3.50095 0 0 0 0 0 0 
185 7 -3.41101 8.83124 6.13625 0 0 0 0 0 0 
191 7 -5.4615 7.4788 6.22021 0 0 0 0 0 0 
137 2 0.444112 4.61249 10.045 0 0 0 0 0 0 
138 3 0.390497 4.61311 8.48133 0 0 0 0 0 0 
139 4 0.390497 4.61311 8.53133 0 0 0 0 0 0 
140 3 -4.92033 5.47002 10.4217 0 0 0 0 0 0 
141 4 -4.92033 5.47002 10.4717 0 0 0 0 0 0 
150 1 -2.81564 7.05723 9.42505 0 0 0 0 0 0 
152 1 -2.9243 4.36824 9.04661 0 0 0 0 0 0 
155 6 -1.30911 7.83709 8.70075 0 0 0 2.67151 1.855 -6.40587 
156 8 -1.30911 7.83709 7.70075 0 0 0 2.57905 0.919136 6.8238 
184 5 -3.41101 8.83124 7.13625 0 0 0 0 0 0 
186 7 -3.41101 7.83124 7.13625 0 0 0 0 0 0 
190 5 -5.4615 7.4788 7.22021 0 0 0 0 0 0 
192 7 -5.4615 6.4788 7.22021 0 0 0 0 0 0 
127 1 -2.5824 2.61302 13.1401 0 0 0 0 0 0 
131 3 -4.97491 3.39604 12.9257 0 0 0 0 0 0 
132 4 -4.97491 3.39604 12.9757 0 0 0 0 0 0 
133 3 -2.25217 7.33909 11.448 0 0 0 0 0 0 
142 1 -4.70013 5.69915 13.1418 0 0 0 0 0 0 
143 2 -1.43868 5.9227 12.0321 0 0 0 0 0 0 
144 3 -2.51057 5.07261 12.9173 0 0 0 0 0 0 
145 4 -2.51057 5.07261 12.9673 0 0 0 0 0 0 
146 3 -6.85744 6.37102 12.9238 0 0 0 0 0 0 
147 4 -6.85744 6.37102 12.9738 0 0 0 0 0 0 
148 3 -0.919859 5.29678 10.6369 0 0 0 0 0 0 
149 4 -0.919859 5.29678 10.6869 0 0 0 0 0 0 
189 7 -2.3752 3.7192 10.7603 0 0 0 0 0 0 
230 3 -5.67063 4.92976 15.3432 0 0 0 0 0 0 
231 4 -5.67063 4.92976 15.3932 0 0 0 0 0 0 
239 1 0.703196 2.59435 15.1132 0 0 0 0 0 0 
240 2 -2.77056 2.8179 16.2229 0 0 0 0 0 0 
241 3 -3.84244 1.96781 15.3376 0 0 0 0 0 0 
242 4 -3.84245 1.96781 15.3876 0 0 0 0 0 0 
243 3 -1.45412 3.26622 15.3312 0 0 0 0 0 0 
244 4 -1.45412 3.26622 15.3812 0 0 0 0 0 0 
245 3 -3.58405 4.23429 16.807 0 0 0 0 0 0 
246 4 -3.58405 4.23429 16.857 0 0 0 0 0 0 
213 1 -4.22043 3.70406 18.8008 0 0 0 0 0 0 
214 1 -4.10582 1.71701 19.2206 0 0 0 0 0 0 
216 6 -2.59545 -0.215348 19.5125 0 0 0 -19.6154 33.3196 -24.1133 
217 8 -2.59545 -0.215348 20.5125 0 0 0 -8.76577 15.0287 -14.0836 
234 2 -0.887766 1.50769 18.21 0 0 0 0 0 0 
235 3 -0.941381 1.50831 19.7737 0 0 0 0 0 0 
236 4 -0.941381 1.50831 19.8237 0 0 0 0 0 0 
237 3 0.48299 2.36522 17.8333 0 0 0 0 0 0 
238 4 0.48299 2.36522 17.8833 0 0 0 0 0 0 
247 3 -2.25174 2.19198 17.6181 0 0 0 0 0 0 
248 4 -2.25174 2.19198 17.6681 0 0 0 0 0 0 
250 7 -2.70724 2.62168 20.1299 0 0 0 0 0 0 
263 7 -3.70708 0.614406 17.4946 0 0 0 0 0 0 
212 1 -2.11187 0.847668 23.4187 0 0 0 0 0 0 
215 1 -2.22053 -1.84131 23.0403 0 0 0 0 0 0 
218 6 1.09427 -1.59645 22.475 0 0 0 -2.2748 6.40919 -6.38126 
220 6 -4.07288 1.16432 22.416 0 0 0 -4.69444 -9.6905 -6.74284 
221 8 -4.07288 1.16432 21.416 0 0 0 0.282427 0.999993 8.05112 
222 6 -0.605335 1.62753 22.6944 0 0 0 6.07581 2.8141 -5.44476 
223 8 -0.605335 1.62753 21.6944 0 0 0 0.960621 0.695816 4.56932 
249 5 -2.70724 2.62168 21.1299 0 0 0 0 0 0 
251 7 -2.70724 1.62168 21.1299 0 0 0 0 0 0 
254 7 -1.92679 -0.364836 21.0348 0 0 0 0 0 0 
258 5 -4.21656 -0.739537 24.4154 0 0 0 0 0 0 
259 7 -4.21656 -0.739537 23.4154 0 0 0 0 0 0 
260 7 -4.21656 0.260463 24.4154 0 0 0 0 0 0 
193 1 -1.87863 -3.59654 27.1338 0 0 0 0 0 0 
197 3 -4.27114 -2.81352 26.9194 0 0 0 0 0 0 
198 4 -4.27114 -2.81352 26.9694 0 0 0 0 0 0 
199 3 -1.5484 1.12953 25.4417 0 0 0 0 0 0 
204 1 -3.99636 -0.510405 27.1355 0 0 0 0 0 0 
205 2 -0.734913 -0.286863 26.0258 0 0 0 0 0 0 
206 3 -1.8068 -1.13695 26.911 0 0 0 0 0 0 
207 4 -1.8068 -1.13695 26.961 0 0 0 0 0 0 
208 3 -6.15367 0.161465 26.9175 0 0 0 0 0 0 
209 4 -6.15367 0.161465 26.9675 0 0 0 0 0 0 
210 3 -0.216089 -0.912782 24.6306 0 0 0 0 0 0 
211 4 -0.216089 -0.912782 24.6806 0 0 0 0 0 0 
257 7 -1.67143 -2.49035 24.754 0 0 0 0 0 0 
294 1 -1.95414 11.9273 1.12117 0 0 0 0 0 0 
295 2 -5.15748 11.6665 2.2264 0 0 0 0 0 0 
296 3 -4.34666 12.7103 1.33556 0 0 0 0 0 0 
297 4 -4.34666 12.7103 1.38556 0 0 0 0 0 0 
307 1 -4.07187 15.0134 1.11949 0 0 0 0 0 0 
308 2 -7.54562 15.237 2.2292 0 0 0 0 0 0 
309 3 -8.61751 14.3869 1.34396 0 0 0 0 0 0 
310 4 -8.61751 14.3869 1.39396 0 0 0 0 0 0 
311 3 -6.22919 15.6853 1.33752 0 0 0 0 0 0 
312 4 -6.22919 15.6853 1.38752 0 0 0 0 0 0 
292 6 -3.34475 10.9419 5.56055 0 0 0 -3.74578 2.24269 11.5029 
293 8 -3.34475 10.9419 6.56055 0 0 0 2.35682 -1.59053 -8.34096 
300 3 -5.65673 12.4495 3.63613 0 0 0 0 0 0 
301 4 -5.65673 12.4495 3.68613 0 0 0 0 0 0 
302 1 -7.08179 13.5133 4.28893 0 0 0 0 0 0 
303 6 -8.48215 12.0335 3.50095 0 0 0 2.3765 0.98578 6.81209 
304 8 -8.48215 12.0335 4.50095 0 0 0 -2.50254 -1.83119 -6.78374 
305 6 -4.29208 14.7843 3.8396 0 0 0 4.61822 1.72969 4.71323 
315 3 -7.0268 14.6111 3.62438 0 0 0 0 0 0 
316 4 -7.0268 14.6111 3.67438 0 0 0 0 0 0 
318 7 -6.70185 11.0542 6.04109 0 0 0 0 0 0 
327 7 -9.5328 13.6883 6.22021 0 0 0 0 0 0 
329 5 -5.71645 13.9274 5.77997 0 0 0 0 0 0 
331 7 -5.71645 12.9274 5.77997 0 0 0 0 0 0 
274 2 -3.62718 10.822 10.045 0 0 0 0 0 0 
275 6 -3.6808 10.8226 8.48133 0 0 0 -20.1779 7.88498 20.6797 
276 8 -4.6808 10.8226 8.48133 0 0 0 4.6446 -1.99101 -15.1657 
277 3 -8.99163 11.6795 10.4217 0 0 0 0 0 0 
278 4 -8.99163 11.6795 10.4717 0 0 0 0 0 0 
280 8 -6.4465 8.92873 9.76035 0 0 0 0.25183 -3.16791 7.65004 
289 1 -4.72875 12.3378 7.18607 0 0 0 0 0 0 
291 1 -6.99559 10.5778 9.04661 0 0 0 0 0 0 
317 5 -6.70185 11.0542 7.04109 0 0 0 0 0 0 
319 7 -6.70185 12.0542 7.04109 0 0 0 0 0 0 
328 7 -9.5328 12.6883 7.22021 0 0 0 0 0 0 
134 4 -2.25217 7.33909 11.498 0 0 0 0 0 0 
264 1 -6.6537 8.82254 13.1401 0 0 0 0 0 0 
265 2 -3.12184 8.56174 12.0349 0 0 0 0 0 0 
266 3 -4.33875 8.03455 12.9117 0 0 0 0 0 0 
267 4 -4.33875 8.03455 12.9617 0 0 0 0 0 0 
268 3 -9.04621 9.60556 12.9257 0 0 0 0 0 0 
269 4 -9.04621 9.60556 12.9757 0 0 0 0 0 0 
272 3 -3.62108 9.34476 10.6252 0 0 0 0 0 0 
273 4 -3.62108 9.34476 10.6752 0 0 0 0 0 0 
279 6 -6.4465 8.92873 10.7603 0 0 0 0.159641 4.28781 -9.09419 
287 3 -4.99115 11.5063 10.6369 0 0 0 0 0 0 
288 4 -4.99115 11.5063 10.6869 0 0 0 0 0 0 
366 1 -1.25037 5.71774 15.1149 0 0 0 0 0 0 
367 2 -4.45371 5.45694 16.2201 0 0 0 0 0 0 
368 3 -3.64288 6.50077 15.3292 0 0 0 0 0 0 
369 4 -3.64288 6.50076 15.3792 0 0 0 0 0 0 
375 1 -3.3681 8.80388 15.1132 0 0 0 0 0 0 
376 2 -6.84186 9.02742 16.2229 0 0 0 0 0 0 
377 3 -7.91374 8.17733 15.3376 0 0 0 0 0 0 
378 4 -7.91374 8.17733 15.3876 0 0 0 0 0 0 
379 3 -5.52542 9.47575 15.3312 0 0 0 0 0 0 
380 4 -5.52542 9.47575 15.3812 0 0 0 0 0 0 
357 1 -8.17712 7.92653 19.2206 0 0 0 0 0 0 
358 6 -6.66675 5.99417 19.5125 0 0 0 -23.021 23.2204 -20.1834 
359 8 -6.66675 5.99417 20.5125 0 0 0 -10.4155 13.2608 -11.7433 
364 6 -2.64098 4.73229 19.5542 0 0 0 -2.7832 1.13723 4.99763 
365 8 -2.64098 4.73229 20.5542 0 0 0 1.01291 0.176911 -4.89443 
372 3 -4.95296 6.23997 17.6298 0 0 0 0 0 0 
373 4 -4.95296 6.23997 17.6798 0 0 0 0 0 0 
374 1 -6.37802 7.30377 18.2826 0 0 0 0 0 0 
383 3 -6.32303 8.4015 17.6181 0 0 0 0 0 0 
384 4 -6.32303 8.4015 17.6681 0 0 0 0 0 0 
389 7 -5.99808 4.84469 20.0348 0 0 0 0 0 0 
391 5 -7.77838 5.82393 17.4946 0 0 0 0 0 0 
392 7 -7.77838 5.82393 18.4946 0 0 0 0 0 0 
393 7 -7.77838 6.82393 17.4946 0 0 0 0 0 0 
397 5 -5.01268 7.71783 19.7737 0 0 0 0 0 0 
399 7 -5.01268 6.71783 19.7737 0 0 0 0 0 0 
342 2 -2.92341 4.61245 24.0387 0 0 0 0 0 0 
343 3 -2.97703 4.61307 22.475 0 0 0 0 0 0 
344 4 -2.97703 4.61307 22.525 0 0 0 0 0 0 
345 3 -8.28786 5.46998 24.4154 0 0 0 0 0 0 
346 4 -8.28786 5.46998 24.4654 0 0 0 0 0 0 
386 7 -5.74273 2.71917 23.754 0 0 0 0 0 0 
388 5 -5.99808 4.84469 21.0348 0 0 0 0 0 0 
390 7 -5.99808 5.84469 21.0348 0 0 0 0 0 0 
200 4 -1.5484 1.12953 25.4917 0 0 0 0 0 0 
332 1 -5.94993 2.61298 27.1338 0 0 0 0 0 0 
333 2 -2.41807 2.35218 26.0286 0 0 0 0 0 0 
334 3 -3.63498 1.825 26.9054 0 0 0 0 0 0 
335 4 -3.63498 1.825 26.9554 0 0 0 0 0 0 
336 3 -8.34244 3.396 26.9194 0 0 0 0 0 0 
337 4 -8.34244 3.396 26.9694 0 0 0 0 0 0 
340 3 -2.91731 3.1352 24.6189 0 0 0 0 0 0 
341 4 -2.91731 3.13521 24.6689 0 0 0 0 0 0 
353 3 -4.28738 5.29674 24.6306 0 0 0 0 0 0 
354 4 -4.28738 5.29674 24.6806 0 0 0 0 0 0 
385 5 -5.74273 2.71917 24.754 0 0 0 0 0 0 
387 7 -5.74273 3.71917 24.754 0 0 0 0 0 0 
298 3 -10.4457 17.3488 1.34955 0 0 0 0 0 0 
299 4 -10.4457 17.3488 1.39955 0 0 0 0 0 0 
313 3 -8.35912 16.6534 2.8133 0 0 0 0 0 0 
314 4 -8.35912 16.6534 2.8633 0 0 0 0 0 0 
424 1 -6.02544 18.1368 1.12117 0 0 0 0 0 0 
425 2 -9.22878 17.876 2.2264 0 0 0 0 0 0 
426 3 -8.41795 18.9198 1.33556 0 0 0 0 0 0 
427 4 -8.41795 18.9198 1.38556 0 0 0 0 0 0 
290 1 -8.99549 16.1231 4.80714 0 0 0 0 0 0 
306 8 -4.29207 14.7843 4.8396 0 0 0 -0.400417 0.280687 -7.34229 
321 7 -7.4823 15.0408 6.13625 0 0 0 0 0 0 
330 7 -5.71645 13.9274 6.77997 0 0 0 0 0 0 
430 3 -9.72803 18.659 3.63613 0 0 0 0 0 0 
431 4 -9.72803 18.659 3.68613 0 0 0 0 0 0 
433 6 -12.5534 18.243 3.50095 0 0 0 1.34223 -1.24223 6.88023 
434 8 -12.5534 18.243 4.50095 0 0 0 -1.37439 -0.819035 -6.95499 
454 5 -7.41605 17.1514 5.56055 0 0 0 0 0 0 
455 7 -7.41605 17.1514 6.56055 0 0 0 0 0 0 
456 7 -7.41605 18.1514 5.56055 0 0 0 0 0 0 
320 5 -7.4823 15.0408 7.13625 0 0 0 0 0 0 
322 7 -7.4823 14.0408 7.13625 0 0 0 0 0 0 
323 5 -5.3804 14.0466 8.70075 0 0 0 0 0 0 
324 7 -5.3804 14.0466 7.70075 0 0 0 0 0 0 
325 7 -5.3804 13.0466 8.70075 0 0 0 0 0 0 
326 5 -9.5328 13.6883 7.22021 0 0 0 0 0 0 
410 1 -9.10795 16.1587 9.98733 0 0 0 0 0 0 
423 8 -7.75209 17.0321 7.48133 0 0 0 1.40695 -2.86236 8.45562 
449 7 -10.5178 15.1382 9.76035 0 0 0 0 0 0 
270 3 -6.32347 13.5486 11.448 0 0 0 0 0 0 
271 4 -6.32347 13.5486 11.498 0 0 0 0 0 0 
281 1 -8.77142 11.9087 13.1418 0 0 0 0 0 0 
282 2 -5.50998 12.1322 12.0321 0 0 0 0 0 0 
283 3 -6.58186 11.2821 12.9173 0 0 0 0 0 0 
284 4 -6.58186 11.2821 12.9673 0 0 0 0 0 0 
285 3 -10.9287 12.5805 12.9238 0 0 0 0 0 0 
286 4 -10.9287 12.5805 12.9738 0 0 0 0 0 0 
401 2 -7.19313 14.7713 12.0349 0 0 0 0 0 0 
402 3 -8.41005 14.2441 12.9117 0 0 0 0 0 0 
403 4 -8.41005 14.2441 12.9617 0 0 0 0 0 0 
408 3 -7.69238 15.5543 10.6252 0 0 0 0 0 0 
409 4 -7.69238 15.5543 10.6752 0 0 0 0 0 0 
448 5 -10.5178 15.1382 10.7603 0 0 0 0 0 0 
370 3 -9.74192 11.1393 15.3432 0 0 0 0 0 0 
371 4 -9.74192 11.1393 15.3932 0 0 0 0 0 0 
381 3 -7.65535 10.4438 16.807 0 0 0 0 0 0 
382 4 -7.65535 10.4438 16.857 0 0 0 0 0 0 
490 1 -5.32167 11.9273 15.1149 0 0 0 0 0 0 
491 2 -8.52501 11.6665 16.2201 0 0 0 0 0 0 
492 3 -7.71418 12.7103 15.3292 0 0 0 0 0 0 
493 4 -7.71418 12.7103 15.3792 0 0 0 0 0 0 
356 1 -8.29172 9.91358 18.8008 0 0 0 0 0 0 
395 7 -6.77853 8.8312 20.1299 0 0 0 0 0 0 
398 7 -5.01268 7.71783 20.7737 0 0 0 0 0 0 
488 6 -6.71228 10.9418 19.5542 0 0 0 -1.24619 -1.09698 6.77851 
489 8 -6.71228 10.9418 20.5542 0 0 0 1.36138 0.857674 -6.69744 
496 3 -9.02426 12.4495 17.6298 0 0 0 0 0 0 
497 4 -9.02426 12.4495 17.6798 0 0 0 0 0 0 
503 6 -11.8497 12.0334 17.4946 0 0 0 1.51782 4.22632 6.93166 
504 8 -11.8497 12.0334 18.4946 0 0 0 -0.131825 -2.19722 -6.74002 
522 7 -10.0694 11.0542 20.0348 0 0 0 0 0 0 
355 1 -6.18317 7.05719 23.4187 0 0 0 0 0 0 
360 6 -8.14417 7.37384 22.416 0 0 0 -3.75691 -2.59462 -11.5194 
361 8 -8.14417 7.37384 21.416 0 0 0 -0.546457 -0.69371 9.37113 
362 6 -4.67663 7.83705 22.6944 0 0 0 8.4393 3.1236 -11.1773 
363 8 -4.67663 7.83705 21.6944 0 0 0 1.21024 0.637553 7.19867 
394 5 -6.77853 8.8312 21.1299 0 0 0 0 0 0 
396 7 -6.77853 7.8312 21.1299 0 0 0 0 0 0 
470 1 -8.40418 9.94912 23.981 0 0 0 0 0 0 
472 8 -9.81402 8.92869 23.754 0 0 0 -2.66301 -2.73204 6.3694 
516 7 -7.04832 10.8226 21.475 0 0 0 0 0 0 
521 5 -10.0694 11.0542 21.0348 0 0 0 0 0 0 
338 3 -5.6197 7.33905 25.4417 0 0 0 0 0 0 
339 4 -5.6197 7.33905 25.4917 0 0 0 0 0 0 
347 1 -8.06765 5.69912 27.1355 0 0 0 0 0 0 
348 2 -4.80621 5.92266 26.0258 0 0 0 0 0 0 
349 3 -5.87809 5.07257 26.911 0 0 0 0 0 0 
350 4 -5.87809 5.07258 26.961 0 0 0 0 0 0 
351 3 -10.225 6.37099 26.9175 0 0 0 0 0 0 
352 4 -10.225 6.37099 26.9675 0 0 0 0 0 0 
461 2 -6.48936 8.56171 26.0286 0 0 0 0 0 0 
462 3 -7.70628 8.03452 26.9054 0 0 0 0 0 0 
463 4 -7.70628 8.03452 26.9554 0 0 0 0 0 0 
468 3 -6.98861 9.34473 24.6189 0 0 0 0 0 0 
469 4 -6.98861 9.34473 24.6689 0 0 0 0 0 0 
471 6 -9.81402 8.92869 24.754 0 0 0 -1.76777 1.35798 -4.35842 
428 3 -14.517 23.5584 1.34955 0 0 0 0 0 0 
429 4 -14.517 23.5584 1.39955 0 0 0 0 0 0 
435 1 -8.14316 21.223 1.11949 0 0 0 0 0 0 
436 2 -11.6169 21.4465 2.2292 0 0 0 0 0 0 
437 3 -12.6888 20.5964 1.34396 0 0 0 0 0 0 
438 4 -12.6888 20.5964 1.39396 0 0 0 0 0 0 
439 3 -10.3005 21.8948 1.33752 0 0 0 0 0 0 
440 4 -10.3005 21.8948 1.38752 0 0 0 0 0 0 
441 3 -12.4304 22.8629 2.8133 0 0 0 0 0 0 
442 4 -12.4304 22.8629 2.8633 0 0 0 0 0 0 
420 6 -9.78774 20.1369 5.77997 0 0 0 5.40508 -5.01059 18.4295 
421 8 -9.78774 20.1369 6.77997 0 0 0 -2.1494 3.03031 -6.9151 
432 1 -11.1531 19.7229 4.28893 0 0 0 0 0 0 
443 3 -11.0981 20.8206 3.62438 0 0 0 0 0 0 
444 4 -11.0981 20.8206 3.67438 0 0 0 0 0 0 
446 7 -13.6041 19.8978 6.22021 0 0 0 0 0 0 
451 5 -8.36337 20.9938 3.8396 0 0 0 0 0 0 
452 7 -8.36337 20.9938 4.8396 0 0 0 0 0 0 
453 7 -8.36337 19.9938 3.8396 0 0 0 0 0 0 
419 1 -8.80005 18.5473 7.18607 0 0 0 0 0 0 
422 6 -7.75209 17.0321 8.48133 0 0 0 -4.22282 8.0275 -10.53 
445 5 -13.6041 19.8978 7.22021 0 0 0 0 0 0 
447 7 -13.6041 18.8978 7.22021 0 0 0 0 0 0 
457 5 -13.0629 17.8891 10.4217 0 0 0 0 0 0 
458 7 -13.0629 17.8891 9.4217 0 0 0 0 0 0 
459 7 -13.0629 18.8891 10.4217 0 0 0 0 0 0 
400 1 -10.725 15.0321 13.1401 0 0 0 0 0 0 
404 3 -13.1175 15.8151 12.9257 0 0 0 0 0 0 
405 4 -13.1175 15.8151 12.9757 0 0 0 0 0 0 
406 3 -10.3948 19.7581 11.448 0 0 0 0 0 0 
411 1 -12.8427 18.1182 13.1418 0 0 0 0 0 0 
412 2 -9.58127 18.3417 12.0321 0 0 0 0 0 0 
413 3 -10.6532 17.4917 12.9173 0 0 0 0 0 0 
414 4 -10.6532 17.4917 12.9673 0 0 0 0 0 0 
415 3 -15 18.7901 12.9238 0 0 0 0 0 0 
416 4 -15 18.7901 12.9738 0 0 0 0 0 0 
417 3 -9.06245 17.7158 10.6369 0 0 0 0 0 0 
418 4 -9.06245 17.7158 10.6869 0 0 0 0 0 0 
450 7 -10.5178 16.1382 10.7603 0 0 0 0 0 0 
494 3 -13.8132 17.3488 15.3432 0 0 0 0 0 0 
495 4 -13.8132 17.3488 15.3932 0 0 0 0 0 0 
505 1 -7.43939 15.0134 15.1132 0 0 0 0 0 0 
506 2 -10.9131 15.2369 16.2229 0 0 0 0 0 0 
507 3 -11.985 14.3869 15.3376 0 0 0 0 0 0 
508 4 -11.985 14.3869 15.3876 0 0 0 0 0 0 
509 3 -9.59671 15.6853 15.3312 0 0 0 0 0 0 
510 4 -9.59671 15.6853 15.3812 0 0 0 0 0 0 
511 3 -11.7266 16.6533 16.807 0 0 0 0 0 0 
512 4 -11.7266 16.6533 16.857 0 0 0 0 0 0 
482 1 -12.363 16.1231 18.8008 0 0 0 0 0 0 
483 1 -12.2484 14.1361 19.2206 0 0 0 0 0 0 
498 2 -9.03036 13.9267 18.21 0 0 0 0 0 0 
499 3 -9.08397 13.9274 19.7737 0 0 0 0 0 0 
500 4 -9.08397 13.9274 19.8237 0 0 0 0 0 0 
501 3 -7.6596 14.7843 17.8333 0 0 0 0 0 0 
502 4 -7.6596 14.7843 17.8833 0 0 0 0 0 0 
513 3 -10.3943 14.611 17.6181 0 0 0 0 0 0 
514 4 -10.3943 14.611 17.6681 0 0 0 0 0 0 
525 7 -10.8498 15.0407 20.1299 0 0 0 0 0 0 
480 8 -8.35868 11.5063 23.6306 0 0 0 -0.516303 4.30227 4.61811 
481 1 -10.2545 13.2667 23.4187 0 0 0 0 0 0 
484 6 -12.2155 13.5834 22.416 0 0 0 -3.34595 -6.83122 -7.71003 
485 8 -12.2155 13.5834 21.416 0 0 0 -0.923415 -0.173686 8.76609 
486 6 -8.74793 14.0466 22.6944 0 0 0 6.95313 -1.24625 -8.54193 
487 8 -8.74793 14.0466 21.6944 0 0 0 0.804714 1.28704 5.94726 
515 5 -7.04832 10.8226 22.475 0 0 0 0 0 0 
517 7 -7.04832 11.8226 22.475 0 0 0 0 0 0 
518 5 -12.3592 11.6795 24.4154 0 0 0 0 0 0 
519 7 -12.3592 11.6795 23.4154 0 0 0 0 0 0 
520 7 -12.3592 12.6795 24.4154 0 0 0 0 0 0 
523 7 -10.0694 12.0542 21.0348 0 0 0 0 0 0 
524 5 -10.8498 15.0407 21.1299 0 0 0 0 0 0 
526 7 -10.8498 14.0407 21.1299 0 0 0 0 0 0 
460 1 -10.0212 8.8225 27.1338 0 0 0 0 0 0 
464 3 -12.4137 9.60552 26.9194 0 0 0 0 0 0 
465 4 -12.4137 9.60552 26.9694 0 0 0 0 0 0 
466 3 -9.69099 13.5486 25.4417 0 0 0 0 0 0 
473 1 -12.1389 11.9086 27.1355 0 0 0 0 0 0 
474 2 -8.8775 12.1322 26.0258 0 0 0 0 0 0 
475 3 -9.94939 11.2821 26.911 0 0 0 0 0 0 
476 4 -9.94939 11.2821 26.961 0 0 0 0 0 0 
477 3 -14.2963 12.5805 26.9175 0 0 0 0 0 0 
478 4 -14.2963 12.5805 26.9675 0 0 0 0 0 0 
479 6 -8.35868 11.5063 24.6306 0 0 0 -4.19542 13.2718 2.79182 
552 1 12.9236 -0.49174 1.12117 0 0 0 0 0 0 
553 2 9.72031 -0.75254 2.2264 0 0 0 0 0 0 
554 3 10.5311 0.291281 1.33556 0 0 0 0 0 0 
555 4 10.5311 0.291281 1.38556 0 0 0 0 0 0 
560 1 10.8059 2.59439 1.11949 0 0 0 0 0 0 
561 2 7.33216 2.81793 2.2292 0 0 0 0 0 0 
562 3 6.26028 1.96785 1.34396 0 0 0 0 0 0 
563 4 6.26028 1.96785 1.39396 0 0 0 0 0 0 
564 3 8.6486 3.26626 1.33752 0 0 0 0 0 0 
565 4 8.6486 3.26626 1.38752 0 0 0 0 0 0 
547 1 5.99691 1.71705 5.22695 0 0 0 0 0 0 
548 6 9.16134 1.50835 5.77997 0 0 0 5.34236 -2.42685 15.8908 
558 3 9.22106 0.030481 3.63613 0 0 0 0 0 0 
559 4 9.22106 0.030481 3.68613 0 0 0 0 0 0 
568 3 7.85099 2.19201 3.62438 0 0 0 0 0 0 
569 4 7.85099 2.19202 3.67438 0 0 0 0 0 0 
570 5 11.533 -1.47719 5.56055 0 0 0 0 0 0 
571 7 11.533 -1.47719 6.56055 0 0 0 0 0 0 
572 7 11.533 -0.47719 5.56055 0 0 0 0 0 0 
582 5 6.39564 -0.385557 3.50095 0 0 0 0 0 0 
583 7 6.39564 -0.385557 4.50095 0 0 0 0 0 0 
584 7 6.39564 0.614443 3.50095 0 0 0 0 0 0 
537 1 9.84114 -2.46989 9.98733 0 0 0 0 0 0 
546 1 10.149 -0.08129 7.18607 0 0 0 0 0 0 
573 5 11.197 -1.59641 8.48133 0 0 0 0 0 0 
574 7 11.197 -1.59641 7.48133 0 0 0 0 0 0 
575 7 11.197 -0.596414 8.48133 0 0 0 0 0 0 
576 5 5.88616 -0.7395 10.4217 0 0 0 0 0 0 
577 7 5.88616 -0.7395 9.4217 0 0 0 0 0 0 
527 1 8.22409 -3.5965 13.1401 0 0 0 0 0 0 
528 2 11.756 -3.8573 12.0349 0 0 0 0 0 0 
529 3 10.539 -4.38449 12.9117 0 0 0 0 0 0 
530 4 10.539 -4.38449 12.9617 0 0 0 0 0 0 
531 3 5.83158 -2.81348 12.9257 0 0 0 0 0 0 
532 4 5.83158 -2.81348 12.9757 0 0 0 0 0 0 
535 3 11.2567 -3.07428 10.6252 0 0 0 0 0 0 
536 4 11.2567 -3.07428 10.6752 0 0 0 0 0 0 
544 3 9.88664 -0.912745 10.6369 0 0 0 0 0 0 
545 4 9.88664 -0.912745 10.6869 0 0 0 0 0 0 
904 4 12.6256 -5.07995 11.498 0 0 0 0 0 0 
612 1 13.6274 -6.7013 15.1149 0 0 0 0 0 0 
613 2 10.4241 -6.9621 16.2201 0 0 0 0 0 0 
614 3 11.2349 -5.91828 15.3292 0 0 0 0 0 0 
615 4 11.2349 -5.91828 15.3792 0 0 0 0 0 0 
620 1 11.5097 -3.61517 15.1132 0 0 0 0 0 0 
621 2 8.03594 -3.39162 16.2229 0 0 0 0 0 0 
622 3 6.96405 -4.24171 15.3376 0 0 0 0 0 0 
623 4 6.96405 -4.24171 15.3876 0 0 0 0 0 0 
624 3 9.35237 -2.9433 15.3312 0 0 0 0 0 0 
625 4 9.35237 -2.9433 15.3812 0 0 0 0 0 0 
607 1 6.70068 -4.49251 19.2206 0 0 0 0 0 0 
608 6 8.21104 -6.42487 19.5125 0 0 0 -5.46029 1.39767 18.2703 
609 8 8.21104 -6.42487 20.5125 0 0 0 1.0144 -2.01133 -5.4745 
610 6 12.2368 -7.68675 19.5542 0 0 0 -0.404708 7.44682 5.38424 
611 8 12.2368 -7.68675 20.5542 0 0 0 0.986555 -1.12456 -4.60044 
618 3 9.92483 -6.17908 17.6298 0 0 0 0 0 0 
619 4 9.92483 -6.17908 17.6798 0 0 0 0 0 0 
628 6 8.55476 -4.01754 17.6181 0 0 0 -10.8155 2.96831 3.62248 
630 5 9.86511 -4.70121 19.7737 0 0 0 0 0 0 
632 7 9.86511 -5.70121 19.7737 0 0 0 0 0 0 
636 5 7.09941 -6.59511 17.4946 0 0 0 0 0 0 
637 7 7.09941 -6.59511 18.4946 0 0 0 0 0 0 
638 7 7.09941 -5.59511 17.4946 0 0 0 0 0 0 
639 5 11.2895 -3.8443 17.8333 0 0 0 0 0 0 
641 7 11.2895 -4.8443 17.8333 0 0 0 0 0 0 
595 1 10.5449 -8.67944 23.981 0 0 0 0 0 0 
597 8 9.13506 -9.69988 23.754 0 0 0 -2.66695 -1.25064 5.67812 
633 5 6.58993 -6.94906 24.4154 0 0 0 0 0 0 
634 7 6.58993 -6.94906 23.4154 0 0 0 0 0 0 
585 1 8.92786 -9.80606 27.1338 0 0 0 0 0 0 
586 2 12.4597 -10.0669 26.0286 0 0 0 0 0 0 
587 3 11.2428 -10.594 26.9054 0 0 0 0 0 0 
588 4 11.2428 -10.594 26.9554 0 0 0 0 0 0 
589 3 6.53535 -9.02304 26.9194 0 0 0 0 0 0 
590 4 6.53535 -9.02304 26.9694 0 0 0 0 0 0 
593 3 11.9605 -9.28384 24.6189 0 0 0 0 0 0 
594 4 11.9605 -9.28384 24.6689 0 0 0 0 0 0 
596 6 9.13506 -9.69988 24.754 0 0 0 -3.17596 -4.69299 -4.16695 
604 3 10.5904 -7.1223 24.6306 0 0 0 0 0 0 
605 4 10.5904 -7.1223 24.6806 0 0 0 0 0 0 
968 4 13.3294 -11.2895 25.4917 0 0 0 0 0 0 
556 3 4.4321 4.92979 1.34955 0 0 0 0 0 0 
557 4 4.4321 4.92979 1.39955 0 0 0 0 0 0 
566 3 6.51867 4.23433 2.8133 0 0 0 0 0 0 
567 4 6.51867 4.23433 2.8633 0 0 0 0 0 0 
680 1 8.85235 5.71778 1.12117 0 0 0 0 0 0 
681 2 5.64901 5.45698 2.2264 0 0 0 0 0 0 
682 3 6.45984 6.5008 1.33556 0 0 0 0 0 0 
683 4 6.45984 6.5008 1.38556 0 0 0 0 0 0 
549 8 9.16134 1.50835 6.77997 0 0 0 -3.14349 2.4585 -9.08064 
678 6 7.46174 4.73233 5.56055 0 0 0 0.494565 5.30041 11.7017 
679 8 7.46174 4.73233 6.56055 0 0 0 1.68259 -2.18544 -9.42781 
686 3 5.14976 6.24 3.63613 0 0 0 0 0 0 
687 4 5.14976 6.24 3.68613 0 0 0 0 0 0 
693 6 2.32435 5.82396 3.50095 0 0 0 -1.35667 1.12414 6.24564 
694 8 2.32435 5.82396 4.50095 0 0 0 0.461295 -0.363992 -6.86288 
709 7 4.10464 4.84472 6.04109 0 0 0 0 0 0 
550 6 6.02985 1.16435 8.42233 0 0 0 0.719913 2.50594 -7.65898 
551 8 6.02985 1.16435 7.42233 0 0 0 -0.349549 -0.764777 6.95326 
578 7 5.88616 0.2605 10.4217 0 0 0 0 0 0 
579 5 9.49739 1.62757 8.70075 0 0 0 0 0 0 
580 7 9.49739 1.62757 7.70075 0 0 0 0 0 0 
581 7 9.49739 0.62757 8.70075 0 0 0 0 0 0 
655 1 5.76985 3.73963 9.98733 0 0 0 0 0 0 
657 8 4.36 2.7192 9.76035 0 0 0 -0.642027 -5.13692 5.83767 
673 8 7.1257 4.61311 7.48133 0 0 0 0.876433 -3.00963 8.61982 
708 5 4.10464 4.84472 7.04109 0 0 0 0 0 0 
533 3 8.55432 1.12957 11.448 0 0 0 0 0 0 
534 4 8.55432 1.12957 11.498 0 0 0 0 0 0 
538 1 6.10637 -0.510368 13.1418 0 0 0 0 0 0 
539 2 9.36781 -0.286826 12.0321 0 0 0 0 0 0 
540 3 8.29593 -1.13691 12.9173 0 0 0 0 0 0 
541 4 8.29593 -1.13691 12.9673 0 0 0 0 0 0 
542 3 3.94905 0.161502 12.9238 0 0 0 0 0 0 
543 4 3.94905 0.161502 12.9738 0 0 0 0 0 0 
646 2 7.68466 2.35222 12.0349 0 0 0 0 0 0 