metadise-generated
  
      2025 atoms
       890 bonds
       835 angles
         9 atom types
         3 bond types
         5 angle types
  
 0.0         26.9408000000 xlo xhi
 0.0         24.8380840000 ylo yhi
 0.0         27.9873670000 zlo zhi
      -16.2851800000        1.4075400000      -12.4191160000 xy xz yz 
  
Masses
  
         1   40.08000
         2   28.10000
         3   15.79000
         4    0.20000
         5   16.00000
         6   16.00000
         7    1.00000
         8    1.00000
         9   27.00000

Atoms
  
1 1 1 2.0 1.488894 -3.5965 13.140126
2 1 2 4.0 5.020753 -3.8573 12.034902
3 2 3 0.84819 3.80384 -4.384488 12.911748
4 2 4 -2.84819 3.80384 -4.384488 12.961748
5 3 3 0.84819 -0.903617 -2.81348 12.925742
6 3 4 -2.84819 -0.903617 -2.81348 12.975742
7 4 3 0.84819 1.819122 1.129566 11.448001
8 4 4 -2.84819 1.819122 1.129566 11.498001
9 5 3 0.84819 4.521507 -3.074279 10.625169
10 5 4 -2.84819 4.521507 -3.074279 10.675169
11 1 1 2.0 3.10594 -2.469887 9.987327
12 1 1 2.0 -0.628832 -0.510368 13.141805
13 1 2 4.0 2.632612 -0.286826 12.032102
14 6 3 0.84819 1.560727 -1.136909 12.917346
15 6 4 -2.84819 1.560727 -1.136909 12.967346
16 7 3 0.84819 -2.786149 0.161502 12.923783
17 7 4 -2.84819 -2.786149 0.161502 12.973783
18 8 3 0.84819 3.151436 -0.912745 10.636926
19 8 4 -2.84819 3.151436 -0.912745 10.686926
20 1 1 2.0 -0.852901 3.704097 4.807138
21 1 1 2.0 -0.738295 1.717049 5.226949
22 1 1 2.0 1.147 -1.841277 9.046608
23 1 6 -1.4 0.772072 -0.215311 5.518843
24 1 8 0.4 0.772072 -0.215311 6.518843
25 1 6 -1.4 4.461792 -1.596414 8.481326
26 1 8 0.4 4.461792 -1.596414 7.481326
27 1 6 -1.4 -0.705351 1.164354 8.42233
28 1 8 0.4 -0.705351 1.164354 7.42233
29 1 6 -1.4 4.797837 -1.47719 5.560552
30 1 8 0.4 4.797837 -1.47719 6.560552
31 1 1 2.0 6.188447 -0.49174 1.121174
32 1 2 4.0 2.985106 -0.75254 2.226401
33 9 3 0.84819 3.795935 0.291281 1.33556
34 9 4 -2.84819 3.795935 0.291281 1.38556
35 10 3 0.84819 -2.303103 4.929793 1.349552
36 10 4 -2.84819 -2.303103 4.929793 1.399552
37 11 3 0.84819 2.485859 0.030481 3.636131
38 11 4 -2.84819 2.485859 0.030481 3.686131
39 1 2 4.0 2.479759 1.507726 4.216313
40 12 3 0.84819 2.426144 1.508347 5.779974
41 12 4 -2.84819 2.426144 1.508347 5.829974
42 13 3 0.84819 3.850515 2.36526 3.839601
43 13 4 -2.84819 3.850515 2.36526 3.889601
44 1 1 2.0 4.070721 2.594392 1.119495
45 1 2 4.0 0.596965 2.817934 2.2292
46 14 3 0.84819 -0.47492 1.967851 1.343955
47 14 4 -2.84819 -0.47492 1.967851 1.393955
48 15 3 0.84819 1.913404 3.266262 1.337518
49 15 4 -2.84819 1.913404 3.266262 1.387518
50 16 3 0.84819 -0.216526 4.234327 2.813299
51 16 4 -2.84819 -0.216526 4.234327 2.863299
52 17 3 0.84819 1.115788 2.192015 3.624377
53 17 4 -2.84819 1.115788 2.192015 3.674377
54 1 5 -0.82 1.696092 -3.490317 10.760348
55 1 7 0.41 1.696092 -3.490317 9.760348
56 1 7 0.41 1.696092 -2.490317 10.760348
57 1 5 -0.82 0.660287 2.621715 7.136248
58 1 7 0.41 0.660287 2.621715 6.136248
59 1 7 0.41 0.660287 1.621715 7.136248
60 1 5 -0.82 1.440736 -1.364799 7.041091
61 1 7 0.41 1.440736 -1.364799 6.041091
62 1 7 0.41 1.440736 -0.364799 7.041091
63 1 5 -0.82 2.76219 1.62757 8.700749
64 1 7 0.41 2.76219 1.62757 7.700749
65 1 7 0.41 2.76219 0.62757 8.700749
66 1 5 -0.82 -0.339556 -0.385557 3.500952
67 1 7 0.41 -0.339556 -0.385557 4.500952
68 1 7 0.41 -0.339556 0.614443 3.500952
69 1 1 2.0 2.192664 -9.806058 27.133809
70 1 2 4.0 5.724523 -10.066858 26.028585
71 18 3 0.84819 4.50761 -10.594046 26.905431
72 18 4 -2.84819 4.50761 -10.594046 26.955431
73 19 3 0.84819 -0.199847 -9.023038 26.919425
74 19 4 -2.84819 -0.199847 -9.023038 26.969425
75 20 3 0.84819 2.522892 -5.079992 25.441684
76 20 4 -2.84819 2.522892 -5.079992 25.491684
77 21 3 0.84819 5.225277 -9.283837 24.618852
78 21 4 -2.84819 5.225277 -9.283837 24.668852
79 1 1 2.0 0.074938 -6.719926 27.135488
80 1 2 4.0 3.336382 -6.496384 26.025785
81 22 3 0.84819 2.264497 -7.346467 26.911029
82 22 4 -2.84819 2.264497 -7.346467 26.961029
83 23 3 0.84819 -2.082379 -6.048056 26.917466
84 23 4 -2.84819 -2.082379 -6.048056 26.967466
85 24 3 0.84819 3.855206 -7.122303 24.630609
86 24 4 -2.84819 3.855206 -7.122303 24.680609
87 1 1 2.0 4.11761 -6.290848 21.179749
88 1 1 2.0 -0.149131 -2.505461 18.800822
89 1 6 -1.4 1.475842 -6.424869 19.512526
90 1 8 0.4 1.475842 -6.424869 20.512526
91 1 6 -1.4 5.501607 -7.686748 19.554235
92 1 8 0.4 5.501607 -7.686748 20.554235
93 1 1 2.0 6.892217 -6.701298 15.114857
94 1 2 4.0 3.688876 -6.962098 16.220084
95 25 3 0.84819 4.499705 -5.918277 15.329243
96 25 4 -2.84819 4.499705 -5.918277 15.379243
97 26 3 0.84819 -1.599333 -1.279765 15.343235
98 26 4 -2.84819 -1.599333 -1.279765 15.393235
99 27 3 0.84819 3.189629 -6.179077 17.629814
100 27 4 -2.84819 3.189629 -6.179077 17.679814
101 1 1 2.0 1.764568 -5.115271 18.282614
102 1 1 2.0 4.774491 -3.615166 15.113178
103 1 2 4.0 1.300735 -3.391624 16.222883
104 28 3 0.84819 0.22885 -4.241707 15.337638
105 28 4 -2.84819 0.22885 -4.241707 15.387638
106 29 3 0.84819 2.617174 -2.943296 15.331201
107 29 4 -2.84819 2.617174 -2.943296 15.381201
108 30 3 0.84819 0.487244 -1.975231 16.806982
109 30 4 -2.84819 0.487244 -1.975231 16.856982
110 31 3 0.84819 1.819558 -4.017543 17.61806
111 31 4 -2.84819 1.819558 -4.017543 17.66806
112 1 5 -0.82 0.364214 -6.595115 17.494635
113 1 7 0.41 0.364214 -6.595115 18.494635
114 1 7 0.41 0.364214 -5.595115 17.494635
115 1 5 -0.82 1.364057 -3.587843 21.129931
116 1 7 0.41 1.364057 -3.587843 20.129931
117 1 7 0.41 1.364057 -4.587843 21.129931
118 1 5 -0.82 3.129914 -4.701211 19.773657
119 1 7 0.41 3.129914 -4.701211 20.773657
120 1 7 0.41 3.129914 -5.701211 19.773657
121 1 5 -0.82 5.165562 -7.805972 22.475009
122 1 7 0.41 5.165562 -7.805972 21.475009
123 1 7 0.41 5.165562 -6.805972 22.475009
124 1 5 -0.82 4.554285 -3.844298 17.833284
125 1 7 0.41 4.554285 -3.844298 18.833284
126 1 7 0.41 4.554285 -4.844298 17.833284
127 1 1 2.0 -2.582401 2.613021 13.140126
128 1 2 4.0 0.949458 2.352221 12.034902
129 32 3 0.84819 -0.267455 1.825033 12.911748
130 32 4 -2.84819 -0.267455 1.825033 12.961748
131 33 3 0.84819 -4.974912 3.396041 12.925742
132 33 4 -2.84819 -4.974912 3.396041 12.975742
133 34 3 0.84819 -2.252173 7.339087 11.448001
134 34 4 -2.84819 -2.252173 7.339087 11.498001
135 35 3 0.84819 0.450212 3.135242 10.625169
136 35 4 -2.84819 0.450212 3.135242 10.675169
137 1 2 4.0 0.444112 4.612486 10.04499
138 36 3 0.84819 0.390497 4.613107 8.481326
139 36 4 -2.84819 0.390497 4.613107 8.531326
140 37 3 0.84819 -4.920332 5.470021 10.421701
141 37 4 -2.84819 -4.920332 5.470021 10.471701
142 1 1 2.0 -4.700127 5.699153 13.141805
143 1 2 4.0 -1.438683 5.922695 12.032102
144 38 3 0.84819 -2.510568 5.072612 12.917346
145 38 4 -2.84819 -2.510568 5.072612 12.967346
146 39 3 0.84819 -6.857444 6.371023 12.923783
147 39 4 -2.84819 -6.857444 6.371023 12.973783
148 40 3 0.84819 -0.919859 5.296776 10.636926
149 40 4 -2.84819 -0.919859 5.296776 10.686926
150 1 1 2.0 -2.815643 7.057226 9.425054
151 1 1 2.0 -4.80959 7.92657 5.226949
152 1 1 2.0 -2.924295 4.368244 9.046608
153 1 6 -1.4 -1.645151 7.717868 5.779974
154 1 8 0.4 -1.645151 7.717868 6.779974
155 1 6 -1.4 -1.309105 7.837091 8.700749
156 1 8 0.4 -1.309105 7.837091 7.700749
157 1 1 2.0 2.117152 5.717781 1.121174
158 1 2 4.0 -1.086189 5.456981 2.226401
159 41 3 0.84819 -0.27536 6.500802 1.33556
160 41 4 -2.84819 -0.27536 6.500802 1.38556
161 42 3 0.84819 -6.374398 11.139314 1.349552
162 42 4 -2.84819 -6.374398 11.139314 1.399552
163 43 3 0.84819 -1.585436 6.240002 3.636131
164 43 4 -2.84819 -1.585436 6.240002 3.686131
165 1 1 2.0 -3.010497 7.303808 4.288931
166 1 6 -1.4 -0.22078 8.574781 3.839601
167 1 8 0.4 -0.22078 8.574781 4.839601
168 1 1 2.0 -0.000574 8.803913 1.119495
169 1 2 4.0 -3.47433 9.027455 2.2292
170 44 3 0.84819 -4.546215 8.177372 1.343955
171 44 4 -2.84819 -4.546215 8.177372 1.393955
172 45 3 0.84819 -2.157891 9.475783 1.337518
173 45 4 -2.84819 -2.157891 9.475783 1.387518
174 46 3 0.84819 -4.287821 10.443848 2.813299
175 46 4 -2.84819 -4.287821 10.443848 2.863299
176 47 3 0.84819 -2.955507 8.401536 3.624377
177 47 4 -2.84819 -2.955507 8.401536 3.674377
178 1 5 -0.82 -4.410851 5.823964 3.500952
179 1 7 0.41 -4.410851 5.823964 4.500952
180 1 7 0.41 -4.410851 6.823964 3.500952
181 1 5 -0.82 0.726542 4.732331 5.560552
182 1 7 0.41 0.726542 4.732331 6.560552
183 1 7 0.41 0.726542 5.732331 5.560552
184 1 5 -0.82 -3.411008 8.831236 7.136248
185 1 7 0.41 -3.411008 8.831236 6.136248
186 1 7 0.41 -3.411008 7.831236 7.136248
187 1 5 -0.82 -2.375203 2.719204 10.760348
188 1 7 0.41 -2.375203 2.719204 9.760348
189 1 7 0.41 -2.375203 3.719204 10.760348
190 1 5 -0.82 -5.461501 7.478802 7.22021
191 1 7 0.41 -5.461501 7.478802 6.22021
192 1 7 0.41 -5.461501 6.478802 7.22021
193 1 1 2.0 -1.878631 -3.596537 27.133809
194 1 2 4.0 1.653228 -3.857337 26.028585
195 48 3 0.84819 0.436315 -4.384525 26.905431
196 48 4 -2.84819 0.436315 -4.384525 26.955431
197 49 3 0.84819 -4.271142 -2.813517 26.919425
198 49 4 -2.84819 -4.271142 -2.813517 26.969425
199 50 3 0.84819 -1.548403 1.129529 25.441684
200 50 4 -2.84819 -1.548403 1.129529 25.491684
201 51 3 0.84819 1.153982 -3.074316 24.618852
202 51 4 -2.84819 1.153982 -3.074316 24.668852
203 1 1 2.0 -0.261585 -2.469924 23.98101
204 1 1 2.0 -3.996357 -0.510405 27.135488
205 1 2 4.0 -0.734913 -0.286863 26.025785
206 52 3 0.84819 -1.806798 -1.136946 26.911029
207 52 4 -2.84819 -1.806798 -1.136946 26.961029
208 53 3 0.84819 -6.153674 0.161465 26.917466
209 53 4 -2.84819 -6.153674 0.161465 26.967466
210 54 3 0.84819 -0.216089 -0.912782 24.630609
211 54 4 -2.84819 -0.216089 -0.912782 24.680609
212 1 1 2.0 -2.111873 0.847668 23.418737
213 1 1 2.0 -4.220426 3.70406 18.800822
214 1 1 2.0 -4.10582 1.717013 19.220633
215 1 1 2.0 -2.220525 -1.841314 23.040292
216 1 6 -1.4 -2.595453 -0.215348 19.512526
217 1 8 0.4 -2.595453 -0.215348 20.512526
218 1 6 -1.4 1.094267 -1.596451 22.475009
219 1 8 0.4 1.094267 -1.596451 21.475009
220 1 6 -1.4 -4.072876 1.164317 22.416013
221 1 8 0.4 -4.072876 1.164317 21.416013
222 1 6 -1.4 -0.605335 1.627533 22.694432
223 1 8 0.4 -0.605335 1.627533 21.694432
224 1 6 -1.4 1.430312 -1.477227 19.554235
225 1 8 0.4 1.430312 -1.477227 20.554235
226 1 1 2.0 2.820922 -0.491777 15.114857
227 1 2 4.0 -0.382419 -0.752577 16.220084
228 55 3 0.84819 0.42841 0.291244 15.329243
229 55 4 -2.84819 0.42841 0.291244 15.379243
230 56 3 0.84819 -5.670628 4.929756 15.343235
231 56 4 -2.84819 -5.670628 4.929756 15.393235
232 57 3 0.84819 -0.881666 0.030444 17.629814
233 57 4 -2.84819 -0.881666 0.030444 17.679814
234 1 2 4.0 -0.887766 1.507689 18.209996
235 58 3 0.84819 -0.941381 1.50831 19.773657
236 58 4 -2.84819 -0.941381 1.50831 19.823657
237 59 3 0.84819 0.48299 2.365223 17.833284
238 59 4 -2.84819 0.48299 2.365223 17.883284
239 1 1 2.0 0.703196 2.594355 15.113178
240 1 2 4.0 -2.77056 2.817897 16.222883
241 60 3 0.84819 -3.842445 1.967814 15.337638
242 60 4 -2.84819 -3.842445 1.967814 15.387638
243 61 3 0.84819 -1.454121 3.266225 15.331201
244 61 4 -2.84819 -1.454121 3.266225 15.381201
245 62 3 0.84819 -3.584051 4.23429 16.806982
246 62 4 -2.84819 -3.584051 4.23429 16.856982
247 63 3 0.84819 -2.251737 2.191978 17.61806
248 63 4 -2.84819 -2.251737 2.191978 17.66806
249 1 5 -0.82 -2.707238 2.621678 21.129931
250 1 7 0.41 -2.707238 2.621678 20.129931
251 1 7 0.41 -2.707238 1.621678 21.129931
252 1 5 -0.82 -1.926789 -1.364836 21.034774
253 1 7 0.41 -1.926789 -1.364836 20.034774
254 1 7 0.41 -1.926789 -0.364836 21.034774
255 1 5 -0.82 -1.671433 -3.490354 24.754031
256 1 7 0.41 -1.671433 -3.490354 23.754031
257 1 7 0.41 -1.671433 -2.490354 24.754031
258 1 5 -0.82 -4.216562 -0.739537 24.415384
259 1 7 0.41 -4.216562 -0.739537 23.415384
260 1 7 0.41 -4.216562 0.260463 24.415384
261 1 5 -0.82 -3.707081 -0.385594 17.494635
262 1 7 0.41 -3.707081 -0.385594 18.494635
263 1 7 0.41 -3.707081 0.614406 17.494635
264 1 1 2.0 -6.653696 8.822542 13.140126
265 1 2 4.0 -3.121837 8.561742 12.034902
266 64 3 0.84819 -4.33875 8.034554 12.911748
267 64 4 -2.84819 -4.33875 8.034554 12.961748
268 65 3 0.84819 -9.046207 9.605562 12.925742
269 65 4 -2.84819 -9.046207 9.605562 12.975742
270 66 3 0.84819 -6.323468 13.548608 11.448001
271 66 4 -2.84819 -6.323468 13.548608 11.498001
272 67 3 0.84819 -3.621083 9.344763 10.625169
273 67 4 -2.84819 -3.621083 9.344763 10.675169
274 1 2 4.0 -3.627183 10.822007 10.04499
275 1 6 -1.4 -3.680798 10.822628 8.481326
276 1 8 0.4 -4.680798 10.822628 8.481326
277 68 3 0.84819 -8.991627 11.679542 10.421701
278 68 4 -2.84819 -8.991627 11.679542 10.471701
279 1 6 -1.4 -6.446498 8.928725 10.760348
280 1 8 0.4 -6.446498 8.928725 9.760348
281 1 1 2.0 -8.771422 11.908674 13.141805
282 1 2 4.0 -5.509978 12.132216 12.032102
283 69 3 0.84819 -6.581863 11.282133 12.917346
284 69 4 -2.84819 -6.581863 11.282133 12.967346
285 70 3 0.84819 -10.928739 12.580544 12.923783
286 70 4 -2.84819 -10.928739 12.580544 12.973783
287 71 3 0.84819 -4.991154 11.506297 10.636926
288 71 4 -2.84819 -4.991154 11.506297 10.686926
289 1 1 2.0 -4.72875 12.337752 7.186066
290 1 1 2.0 -8.995491 16.123139 4.807138
291 1 1 2.0 -6.99559 10.577765 9.046608
292 1 6 -1.4 -3.344753 10.941852 5.560552
293 1 8 0.4 -3.344753 10.941852 6.560552
294 1 1 2.0 -1.954143 11.927302 1.121174
295 1 2 4.0 -5.157484 11.666502 2.226401
296 72 3 0.84819 -4.346655 12.710323 1.33556
297 72 4 -2.84819 -4.346655 12.710323 1.38556
298 73 3 0.84819 -10.445693 17.348835 1.349552
299 73 4 -2.84819 -10.445693 17.348835 1.399552
300 74 3 0.84819 -5.656731 12.449523 3.636131
301 74 4 -2.84819 -5.656731 12.449523 3.686131
302 1 1 2.0 -7.081792 13.513329 4.288931
303 1 6 -1.4 -8.482146 12.033485 3.500952
304 1 8 0.4 -8.482146 12.033485 4.500952
305 1 6 -1.4 -4.292075 14.784302 3.839601
306 1 8 0.4 -4.292075 14.784302 4.839601
307 1 1 2.0 -4.071869 15.013434 1.119495
308 1 2 4.0 -7.545625 15.236976 2.2292
309 75 3 0.84819 -8.61751 14.386893 1.343955
310 75 4 -2.84819 -8.61751 14.386893 1.393955
311 76 3 0.84819 -6.229186 15.685304 1.337518
312 76 4 -2.84819 -6.229186 15.685304 1.387518
313 77 3 0.84819 -8.359116 16.653369 2.813299
314 77 4 -2.84819 -8.359116 16.653369 2.863299
315 78 3 0.84819 -7.026802 14.611057 3.624377
316 78 4 -2.84819 -7.026802 14.611057 3.674377
317 1 5 -0.82 -6.701854 11.054243 7.041091
318 1 7 0.41 -6.701854 11.054243 6.041091
319 1 7 0.41 -6.701854 12.054243 7.041091
320 1 5 -0.82 -7.482303 15.040757 7.136248
321 1 7 0.41 -7.482303 15.040757 6.136248
322 1 7 0.41 -7.482303 14.040757 7.136248
323 1 5 -0.82 -5.3804 14.046612 8.700749
324 1 7 0.41 -5.3804 14.046612 7.700749
325 1 7 0.41 -5.3804 13.046612 8.700749
326 1 5 -0.82 -9.532796 13.688323 7.22021
327 1 7 0.41 -9.532796 13.688323 6.22021
328 1 7 0.41 -9.532796 12.688323 7.22021
329 1 5 -0.82 -5.716446 13.927389 5.779974
330 1 7 0.41 -5.716446 13.927389 6.779974
331 1 7 0.41 -5.716446 12.927389 5.779974
332 1 1 2.0 -5.949926 2.612984 27.133809
333 1 2 4.0 -2.418067 2.352184 26.028585
334 79 3 0.84819 -3.63498 1.824996 26.905431
335 79 4 -2.84819 -3.63498 1.824996 26.955431
336 80 3 0.84819 -8.342437 3.396004 26.919425
337 80 4 -2.84819 -8.342437 3.396004 26.969425
338 81 3 0.84819 -5.619698 7.33905 25.441684
339 81 4 -2.84819 -5.619698 7.33905 25.491684
340 82 3 0.84819 -2.917313 3.135205 24.618852
341 82 4 -2.84819 -2.917313 3.135205 24.668852
342 1 2 4.0 -2.923413 4.612449 24.038673
343 83 3 0.84819 -2.977028 4.61307 22.475009
344 83 4 -2.84819 -2.977028 4.61307 22.525009
345 84 3 0.84819 -8.287857 5.469984 24.415384
346 84 4 -2.84819 -8.287857 5.469984 24.465384
347 1 1 2.0 -8.067652 5.699116 27.135488
348 1 2 4.0 -4.806208 5.922658 26.025785
349 85 3 0.84819 -5.878093 5.072575 26.911029
350 85 4 -2.84819 -5.878093 5.072575 26.961029
351 86 3 0.84819 -10.224969 6.370986 26.917466
352 86 4 -2.84819 -10.224969 6.370986 26.967466
353 87 3 0.84819 -4.287384 5.296739 24.630609
354 87 4 -2.84819 -4.287384 5.296739 24.680609
355 1 1 2.0 -6.183168 7.057189 23.418737
356 1 1 2.0 -8.291721 9.913581 18.800822
357 1 1 2.0 -8.177115 7.926534 19.220633
358 1 6 -1.4 -6.666748 5.994173 19.512526
359 1 8 0.4 -6.666748 5.994173 20.512526
360 1 6 -1.4 -8.144171 7.373838 22.416013
361 1 8 0.4 -8.144171 7.373838 21.416013
362 1 6 -1.4 -4.67663 7.837054 22.694432
363 1 8 0.4 -4.67663 7.837054 21.694432
364 1 6 -1.4 -2.640983 4.732294 19.554235
365 1 8 0.4 -2.640983 4.732294 20.554235
366 1 1 2.0 -1.250373 5.717744 15.114857
367 1 2 4.0 -4.453714 5.456944 16.220084
368 88 3 0.84819 -3.642885 6.500765 15.329243
369 88 4 -2.84819 -3.642885 6.500765 15.379243
370 89 3 0.84819 -9.741923 11.139277 15.343235
371 89 4 -2.84819 -9.741923 11.139277 15.393235
372 90 3 0.84819 -4.952961 6.239965 17.629814
373 90 4 -2.84819 -4.952961 6.239965 17.679814
374 1 1 2.0 -6.378022 7.303771 18.282614
375 1 1 2.0 -3.368099 8.803876 15.113178
376 1 2 4.0 -6.841855 9.027418 16.222883
377 91 3 0.84819 -7.91374 8.177335 15.337638
378 91 4 -2.84819 -7.91374 8.177335 15.387638
379 92 3 0.84819 -5.525416 9.475746 15.331201
380 92 4 -2.84819 -5.525416 9.475746 15.381201
381 93 3 0.84819 -7.655346 10.443811 16.806982
382 93 4 -2.84819 -7.655346 10.443811 16.856982
383 94 3 0.84819 -6.323032 8.401499 17.61806
384 94 4 -2.84819 -6.323032 8.401499 17.66806
385 1 5 -0.82 -5.742728 2.719167 24.754031
386 1 7 0.41 -5.742728 2.719167 23.754031
387 1 7 0.41 -5.742728 3.719167 24.754031
388 1 5 -0.82 -5.998084 4.844685 21.034774
389 1 7 0.41 -5.998084 4.844685 20.034774
390 1 7 0.41 -5.998084 5.844685 21.034774
391 1 5 -0.82 -7.778376 5.823927 17.494635
392 1 7 0.41 -7.778376 5.823927 18.494635
393 1 7 0.41 -7.778376 6.823927 17.494635
394 1 5 -0.82 -6.778533 8.831199 21.129931
395 1 7 0.41 -6.778533 8.831199 20.129931
396 1 7 0.41 -6.778533 7.831199 21.129931
397 1 5 -0.82 -5.012676 7.717831 19.773657
398 1 7 0.41 -5.012676 7.717831 20.773657
399 1 7 0.41 -5.012676 6.717831 19.773657
400 1 1 2.0 -10.724991 15.032063 13.140126
401 1 2 4.0 -7.193132 14.771263 12.034902
402 95 3 0.84819 -8.410045 14.244075 12.911748
403 95 4 -2.84819 -8.410045 14.244075 12.961748
404 96 3 0.84819 -13.117502 15.815083 12.925742
405 96 4 -2.84819 -13.117502 15.815083 12.975742
406 97 3 0.84819 -10.394763 19.758129 11.448001
407 97 4 -2.84819 -10.394763 19.758129 11.498001
408 98 3 0.84819 -7.692378 15.554284 10.625169
409 98 4 -2.84819 -7.692378 15.554284 10.675169
410 1 1 2.0 -9.107945 16.158676 9.987327
411 1 1 2.0 -12.842717 18.118195 13.141805
412 1 2 4.0 -9.581273 18.341737 12.032102
413 99 3 0.84819 -10.653158 17.491654 12.917346
414 99 4 -2.84819 -10.653158 17.491654 12.967346
415 100 3 0.84819 -15.000034 18.790065 12.923783
416 100 4 -2.84819 -15.000034 18.790065 12.973783
417 101 3 0.84819 -9.062449 17.715818 10.636926
418 101 4 -2.84819 -9.062449 17.715818 10.686926
419 1 1 2.0 -8.800045 18.547273 7.186066
420 1 6 -1.4 -9.787741 20.13691 5.779974
421 1 8 0.4 -9.787741 20.13691 6.779974
422 1 6 -1.4 -7.752093 17.032149 8.481326
423 1 8 0.4 -7.752093 17.032149 7.481326
424 1 1 2.0 -6.025438 18.136823 1.121174
425 1 2 4.0 -9.228779 17.876023 2.226401
426 102 3 0.84819 -8.41795 18.919844 1.33556
427 102 4 -2.84819 -8.41795 18.919844 1.38556
428 103 3 0.84819 -14.516988 23.558356 1.349552
429 103 4 -2.84819 -14.516988 23.558356 1.399552
430 104 3 0.84819 -9.728026 18.659044 3.636131
431 104 4 -2.84819 -9.728026 18.659044 3.686131
432 1 1 2.0 -11.153087 19.72285 4.288931
433 1 6 -1.4 -12.553441 18.243006 3.500952
434 1 8 0.4 -12.553441 18.243006 4.500952
435 1 1 2.0 -8.143164 21.222955 1.119495
436 1 2 4.0 -11.61692 21.446497 2.2292
437 105 3 0.84819 -12.688805 20.596414 1.343955
438 105 4 -2.84819 -12.688805 20.596414 1.393955
439 106 3 0.84819 -10.300481 21.894825 1.337518
440 106 4 -2.84819 -10.300481 21.894825 1.387518
441 107 3 0.84819 -12.430411 22.86289 2.813299
442 107 4 -2.84819 -12.430411 22.86289 2.863299
443 108 3 0.84819 -11.098097 20.820578 3.624377
444 108 4 -2.84819 -11.098097 20.820578 3.674377
445 1 5 -0.82 -13.604091 19.897844 7.22021
446 1 7 0.41 -13.604091 19.897844 6.22021
447 1 7 0.41 -13.604091 18.897844 7.22021
448 1 5 -0.82 -10.517793 15.138246 10.760348
449 1 7 0.41 -10.517793 15.138246 9.760348
450 1 7 0.41 -10.517793 16.138246 10.760348
451 1 5 -0.82 -8.36337 20.993823 3.839601
452 1 7 0.41 -8.36337 20.993823 4.839601
453 1 7 0.41 -8.36337 19.993823 3.839601
454 1 5 -0.82 -7.416048 17.151373 5.560552
455 1 7 0.41 -7.416048 17.151373 6.560552
456 1 7 0.41 -7.416048 18.151373 5.560552
457 1 5 -0.82 -13.062922 17.889063 10.421701
458 1 7 0.41 -13.062922 17.889063 9.421701
459 1 7 0.41 -13.062922 18.889063 10.421701
460 1 1 2.0 -10.021221 8.822505 27.133809
461 1 2 4.0 -6.489362 8.561705 26.028585
462 109 3 0.84819 -7.706275 8.034517 26.905431
463 109 4 -2.84819 -7.706275 8.034517 26.955431
464 110 3 0.84819 -12.413732 9.605525 26.919425
465 110 4 -2.84819 -12.413732 9.605525 26.969425
466 111 3 0.84819 -9.690993 13.548571 25.441684
467 111 4 -2.84819 -9.690993 13.548571 25.491684
468 112 3 0.84819 -6.988608 9.344726 24.618852
469 112 4 -2.84819 -6.988608 9.344726 24.668852
470 1 1 2.0 -8.404175 9.949118 23.98101
471 1 6 -1.4 -9.814023 8.928688 24.754031
472 1 8 0.4 -9.814023 8.928688 23.754031
473 1 1 2.0 -12.138947 11.908637 27.135488
474 1 2 4.0 -8.877503 12.132179 26.025785
475 113 3 0.84819 -9.949388 11.282096 26.911029
476 113 4 -2.84819 -9.949388 11.282096 26.961029
477 114 3 0.84819 -14.296264 12.580507 26.917466
478 114 4 -2.84819 -14.296264 12.580507 26.967466
479 1 6 -1.4 -8.358679 11.50626 24.630609
480 1 8 0.4 -8.358679 11.50626 23.630609
481 1 1 2.0 -10.254463 13.26671 23.418737
482 1 1 2.0 -12.363016 16.123102 18.800822
483 1 1 2.0 -12.24841 14.136055 19.220633
484 1 6 -1.4 -12.215466 13.583359 22.416013
485 1 8 0.4 -12.215466 13.583359 21.416013
486 1 6 -1.4 -8.747925 14.046575 22.694432
487 1 8 0.4 -8.747925 14.046575 21.694432
488 1 6 -1.4 -6.712278 10.941815 19.554235
489 1 8 0.4 -6.712278 10.941815 20.554235
490 1 1 2.0 -5.321668 11.927265 15.114857
491 1 2 4.0 -8.525009 11.666465 16.220084
492 115 3 0.84819 -7.71418 12.710286 15.329243
493 115 4 -2.84819 -7.71418 12.710286 15.379243
494 116 3 0.84819 -13.813218 17.348798 15.343235
495 116 4 -2.84819 -13.813218 17.348798 15.393235
496 117 3 0.84819 -9.024256 12.449486 17.629814
497 117 4 -2.84819 -9.024256 12.449486 17.679814
498 1 2 4.0 -9.030356 13.926731 18.209996
499 118 3 0.84819 -9.083971 13.927352 19.773657
500 118 4 -2.84819 -9.083971 13.927352 19.823657
501 119 3 0.84819 -7.6596 14.784265 17.833284
502 119 4 -2.84819 -7.6596 14.784265 17.883284
503 1 6 -1.4 -11.849671 12.033449 17.494635
504 1 8 0.4 -11.849671 12.033449 18.494635
505 1 1 2.0 -7.439394 15.013397 15.113178
506 1 2 4.0 -10.91315 15.236939 16.222883
507 120 3 0.84819 -11.985035 14.386856 15.337638
508 120 4 -2.84819 -11.985035 14.386856 15.387638
509 121 3 0.84819 -9.596711 15.685267 15.331201
510 121 4 -2.84819 -9.596711 15.685267 15.381201
511 122 3 0.84819 -11.726641 16.653332 16.806982
512 122 4 -2.84819 -11.726641 16.653332 16.856982
513 123 3 0.84819 -10.394327 14.61102 17.61806
514 123 4 -2.84819 -10.394327 14.61102 17.66806
515 1 5 -0.82 -7.048323 10.822591 22.475009
516 1 7 0.41 -7.048323 10.822591 21.475009
517 1 7 0.41 -7.048323 11.822591 22.475009
518 1 5 -0.82 -12.359152 11.679505 24.415384
519 1 7 0.41 -12.359152 11.679505 23.415384
520 1 7 0.41 -12.359152 12.679505 24.415384
521 1 5 -0.82 -10.069379 11.054206 21.034774
522 1 7 0.41 -10.069379 11.054206 20.034774
523 1 7 0.41 -10.069379 12.054206 21.034774
524 1 5 -0.82 -10.849828 15.04072 21.129931
525 1 7 0.41 -10.849828 15.04072 20.129931
526 1 7 0.41 -10.849828 14.04072 21.129931
527 1 1 2.0 8.224094 -3.5965 13.140126
528 1 2 4.0 11.755953 -3.8573 12.034902
529 124 3 0.84819 10.53904 -4.384488 12.911748
530 124 4 -2.84819 10.53904 -4.384488 12.961748
531 125 3 0.84819 5.831583 -2.81348 12.925742
532 125 4 -2.84819 5.831583 -2.81348 12.975742
533 126 3 0.84819 8.554322 1.129566 11.448001
534 126 4 -2.84819 8.554322 1.129566 11.498001
535 127 3 0.84819 11.256707 -3.074279 10.625169
536 127 4 -2.84819 11.256707 -3.074279 10.675169
537 1 1 2.0 9.84114 -2.469887 9.987327
538 1 1 2.0 6.106368 -0.510368 13.141805
539 1 2 4.0 9.367812 -0.286826 12.032102
540 128 3 0.84819 8.295927 -1.136909 12.917346
541 128 4 -2.84819 8.295927 -1.136909 12.967346
542 129 3 0.84819 3.949051 0.161502 12.923783
543 129 4 -2.84819 3.949051 0.161502 12.973783
544 130 3 0.84819 9.886636 -0.912745 10.636926
545 130 4 -2.84819 9.886636 -0.912745 10.686926
546 1 1 2.0 10.14904 -0.08129 7.186066
547 1 1 2.0 5.996905 1.717049 5.226949
548 1 6 -1.4 9.161344 1.508347 5.779974
549 1 8 0.4 9.161344 1.508347 6.779974
550 1 6 -1.4 6.029849 1.164354 8.42233
551 1 8 0.4 6.029849 1.164354 7.42233
552 1 1 2.0 12.923647 -0.49174 1.121174
553 1 2 4.0 9.720306 -0.75254 2.226401
554 131 3 0.84819 10.531135 0.291281 1.33556
555 131 4 -2.84819 10.531135 0.291281 1.38556
556 132 3 0.84819 4.432097 4.929793 1.349552
557 132 4 -2.84819 4.432097 4.929793 1.399552
558 133 3 0.84819 9.221059 0.030481 3.636131
559 133 4 -2.84819 9.221059 0.030481 3.686131
560 1 1 2.0 10.805921 2.594392 1.119495
561 1 2 4.0 7.332165 2.817934 2.2292
562 134 3 0.84819 6.26028 1.967851 1.343955
563 134 4 -2.84819 6.26028 1.967851 1.393955
564 135 3 0.84819 8.648604 3.266262 1.337518
565 135 4 -2.84819 8.648604 3.266262 1.387518
566 136 3 0.84819 6.518674 4.234327 2.813299
567 136 4 -2.84819 6.518674 4.234327 2.863299
568 137 3 0.84819 7.850988 2.192015 3.624377
569 137 4 -2.84819 7.850988 2.192015 3.674377
570 1 5 -0.82 11.533037 -1.47719 5.560552
571 1 7 0.41 11.533037 -1.47719 6.560552
572 1 7 0.41 11.533037 -0.47719 5.560552
573 1 5 -0.82 11.196992 -1.596414 8.481326
574 1 7 0.41 11.196992 -1.596414 7.481326
575 1 7 0.41 11.196992 -0.596414 8.481326
576 1 5 -0.82 5.886163 -0.7395 10.421701
577 1 7 0.41 5.886163 -0.7395 9.421701
578 1 7 0.41 5.886163 0.2605 10.421701
579 1 5 -0.82 9.49739 1.62757 8.700749
580 1 7 0.41 9.49739 1.62757 7.700749
581 1 7 0.41 9.49739 0.62757 8.700749
582 1 5 -0.82 6.395644 -0.385557 3.500952
583 1 7 0.41 6.395644 -0.385557 4.500952
584 1 7 0.41 6.395644 0.614443 3.500952
585 1 1 2.0 8.927864 -9.806058 27.133809
586 1 2 4.0 12.459723 -10.066858 26.028585
587 138 3 0.84819 11.24281 -10.594046 26.905431
588 138 4 -2.84819 11.24281 -10.594046 26.955431
589 139 3 0.84819 6.535353 -9.023038 26.919425
590 139 4 -2.84819 6.535353 -9.023038 26.969425
591 140 3 0.84819 9.258092 -5.079992 25.441684
592 140 4 -2.84819 9.258092 -5.079992 25.491684
593 141 3 0.84819 11.960477 -9.283837 24.618852
594 141 4 -2.84819 11.960477 -9.283837 24.668852
595 1 1 2.0 10.54491 -8.679445 23.98101
596 1 6 -1.4 9.135062 -9.699875 24.754031
597 1 8 0.4 9.135062 -9.699875 23.754031
598 1 1 2.0 6.810138 -6.719926 27.135488
599 1 2 4.0 10.071582 -6.496384 26.025785
600 142 3 0.84819 8.999697 -7.346467 26.911029
601 142 4 -2.84819 8.999697 -7.346467 26.961029
602 143 3 0.84819 4.652821 -6.048056 26.917466
603 143 4 -2.84819 4.652821 -6.048056 26.967466
604 144 3 0.84819 10.590406 -7.122303 24.630609
605 144 4 -2.84819 10.590406 -7.122303 24.680609
606 1 1 2.0 6.586069 -2.505461 18.800822
607 1 1 2.0 6.700675 -4.492508 19.220633
608 1 6 -1.4 8.211042 -6.424869 19.512526
609 1 8 0.4 8.211042 -6.424869 20.512526
610 1 6 -1.4 12.236807 -7.686748 19.554235
611 1 8 0.4 12.236807 -7.686748 20.554235
612 1 1 2.0 13.627417 -6.701298 15.114857
613 1 2 4.0 10.424076 -6.962098 16.220084
614 145 3 0.84819 11.234905 -5.918277 15.329243
615 145 4 -2.84819 11.234905 -5.918277 15.379243
616 146 3 0.84819 5.135867 -1.279765 15.343235
617 146 4 -2.84819 5.135867 -1.279765 15.393235
618 147 3 0.84819 9.924829 -6.179077 17.629814
619 147 4 -2.84819 9.924829 -6.179077 17.679814
620 1 1 2.0 11.509691 -3.615166 15.113178
621 1 2 4.0 8.035935 -3.391624 16.222883
622 148 3 0.84819 6.96405 -4.241707 15.337638
623 148 4 -2.84819 6.96405 -4.241707 15.387638
624 149 3 0.84819 9.352374 -2.943296 15.331201
625 149 4 -2.84819 9.352374 -2.943296 15.381201
626 150 3 0.84819 7.222444 -1.975231 16.806982
627 150 4 -2.84819 7.222444 -1.975231 16.856982
628 1 6 -1.4 8.554758 -4.017543 17.61806
629 1 8 0.4 8.554758 -4.017543 18.61806
630 1 5 -0.82 9.865114 -4.701211 19.773657
631 1 7 0.41 9.865114 -4.701211 20.773657
632 1 7 0.41 9.865114 -5.701211 19.773657
633 1 5 -0.82 6.589933 -6.949058 24.415384
634 1 7 0.41 6.589933 -6.949058 23.415384
635 1 7 0.41 6.589933 -5.949058 24.415384
636 1 5 -0.82 7.099414 -6.595115 17.494635
637 1 7 0.41 7.099414 -6.595115 18.494635
638 1 7 0.41 7.099414 -5.595115 17.494635
639 1 5 -0.82 11.289485 -3.844298 17.833284
640 1 7 0.41 11.289485 -3.844298 18.833284
641 1 7 0.41 11.289485 -4.844298 17.833284
642 1 5 -0.82 10.20116 -4.581988 22.694432
643 1 7 0.41 10.20116 -4.581988 21.694432
644 1 7 0.41 10.20116 -5.581988 22.694432
645 1 1 2.0 4.152799 2.613021 13.140126
646 1 2 4.0 7.684658 2.352221 12.034902
647 151 3 0.84819 6.467745 1.825033 12.911748
648 151 4 -2.84819 6.467745 1.825033 12.961748
649 152 3 0.84819 1.760288 3.396041 12.925742
650 152 4 -2.84819 1.760288 3.396041 12.975742
651 153 3 0.84819 4.483027 7.339087 11.448001
652 153 4 -2.84819 4.483027 7.339087 11.498001
653 154 3 0.84819 7.185412 3.135242 10.625169
654 154 4 -2.84819 7.185412 3.135242 10.675169
655 1 1 2.0 5.769845 3.739634 9.987327
656 1 6 -1.4 4.359997 2.719204 10.760348
657 1 8 0.4 4.359997 2.719204 9.760348
658 1 6 -1.4 1.814868 5.470021 10.421701
659 1 8 0.4 1.814868 5.470021 9.421701
660 1 1 2.0 2.035073 5.699153 13.141805
661 1 2 4.0 5.296517 5.922695 12.032102
662 155 3 0.84819 4.224632 5.072612 12.917346
663 155 4 -2.84819 4.224632 5.072612 12.967346
664 156 3 0.84819 -0.122244 6.371023 12.923783
665 156 4 -2.84819 -0.122244 6.371023 12.973783
666 157 3 0.84819 5.815341 5.296776 10.636926
667 157 4 -2.84819 5.815341 5.296776 10.686926
668 1 1 2.0 6.077745 6.128231 7.186066
669 1 1 2.0 3.919557 7.057226 9.425054
670 1 1 2.0 1.811004 9.913618 4.807138
671 1 1 2.0 3.810905 4.368244 9.046608
672 1 6 -1.4 7.125697 4.613107 8.481326
673 1 8 0.4 7.125697 4.613107 7.481326
674 1 6 -1.4 1.958554 7.373875 8.42233
675 1 8 0.4 1.958554 7.373875 7.42233