ITEM: TIMESTEP
0
ITEM: NUMBER OF ATOMS
2025
ITEM: BOX BOUNDS xy xz yz pp pp pp
-1.6285180000000000e+01 2.8348340000000000e+01 -1.6285180000000000e+01
-1.2419116000000001e+01 2.4838083999999998e+01 1.4075400000000000e+00
0.0000000000000000e+00 2.7987366999999999e+01 -1.2419116000000001e+01
ITEM: ATOMS id type x y z vx vy vz fx fy fz 
21 1 -0.738295 1.71705 5.22695 0 0 0 0 0 0 
23 6 0.772072 -0.215311 5.51884 0 0 0 -19.326 37.4447 -23.5183 
29 6 4.79784 -1.47719 5.56055 0 0 0 2.41098 1.51193 8.90159 
31 1 6.18845 -0.49174 1.12117 0 0 0 0 0 0 
32 2 2.98511 -0.75254 2.2264 0 0 0 0 0 0 
33 3 3.79594 0.291281 1.33556 0 0 0 0 0 0 
34 4 3.79594 0.291281 1.38556 0 0 0 0 0 0 
37 3 2.48586 0.030481 3.63613 0 0 0 0 0 0 
38 4 2.48586 0.030481 3.68613 0 0 0 0 0 0 
39 2 2.47976 1.50773 4.21631 0 0 0 0 0 0 
42 3 3.85052 2.36526 3.8396 0 0 0 0 0 0 
43 4 3.85052 2.36526 3.8896 0 0 0 0 0 0 
44 1 4.07072 2.59439 1.11949 0 0 0 0 0 0 
45 2 0.596965 2.81793 2.2292 0 0 0 0 0 0 
46 3 -0.47492 1.96785 1.34396 0 0 0 0 0 0 
47 4 -0.47492 1.96785 1.39396 0 0 0 0 0 0 
48 3 1.9134 3.26626 1.33752 0 0 0 0 0 0 
49 4 1.9134 3.26626 1.38752 0 0 0 0 0 0 
52 3 1.11579 2.19201 3.62438 0 0 0 0 0 0 
53 4 1.11579 2.19202 3.67438 0 0 0 0 0 0 
66 5 -0.339556 -0.385557 3.50095 0 0 0 0 0 0 
67 7 -0.339556 -0.385557 4.50095 0 0 0 0 0 0 
68 7 -0.339556 0.614443 3.50095 0 0 0 0 0 0 
547 1 5.99691 1.71705 5.22695 0 0 0 0 0 0 
552 1 12.9236 -0.49174 1.12117 0 0 0 0 0 0 
553 2 9.72031 -0.75254 2.2264 0 0 0 0 0 0 
554 3 10.5311 0.291281 1.33556 0 0 0 0 0 0 
555 4 10.5311 0.291281 1.38556 0 0 0 0 0 0 
558 3 9.22106 0.030481 3.63613 0 0 0 0 0 0 
559 4 9.22106 0.030481 3.68613 0 0 0 0 0 0 
560 1 10.8059 2.59439 1.11949 0 0 0 0 0 0 
561 2 7.33216 2.81793 2.2292 0 0 0 0 0 0 
562 3 6.26028 1.96785 1.34396 0 0 0 0 0 0 
563 4 6.26028 1.96785 1.39396 0 0 0 0 0 0 
564 3 8.6486 3.26626 1.33752 0 0 0 0 0 0 
565 4 8.6486 3.26626 1.38752 0 0 0 0 0 0 
568 3 7.85099 2.19201 3.62438 0 0 0 0 0 0 
569 4 7.85099 2.19202 3.67438 0 0 0 0 0 0 
570 5 11.533 -1.47719 5.56055 0 0 0 0 0 0 
572 7 11.533 -0.47719 5.56055 0 0 0 0 0 0 
582 5 6.39564 -0.385557 3.50095 0 0 0 0 0 0 
583 7 6.39564 -0.385557 4.50095 0 0 0 0 0 0 
584 7 6.39564 0.614443 3.50095 0 0 0 0 0 0 
1054 6 18.2682 -1.47719 5.56055 0 0 0 0.392901 1.80561 8.46266 
1056 1 19.6588 -0.49174 1.12117 0 0 0 0 0 0 
1057 2 16.4555 -0.75254 2.2264 0 0 0 0 0 0 
1058 3 17.2663 0.291281 1.33556 0 0 0 0 0 0 
1059 4 17.2663 0.291281 1.38556 0 0 0 0 0 0 
1062 3 15.9563 0.030481 3.63613 0 0 0 0 0 0 
1063 4 15.9563 0.030481 3.68613 0 0 0 0 0 0 
1064 1 17.5411 2.59439 1.11949 0 0 0 0 0 0 
1065 2 14.0674 2.81793 2.2292 0 0 0 0 0 0 
1066 3 12.9955 1.96785 1.34396 0 0 0 0 0 0 
1067 4 12.9955 1.96785 1.39396 0 0 0 0 0 0 
1068 3 15.3838 3.26626 1.33752 0 0 0 0 0 0 
1069 4 15.3838 3.26626 1.38752 0 0 0 0 0 0 
1072 6 14.5862 2.19201 3.62438 0 0 0 -8.24344 0.296574 4.2064 
1073 8 14.5862 2.19201 4.62438 0 0 0 0.40455 0.671619 -6.66483 
1083 5 17.3209 2.36526 3.8396 0 0 0 0 0 0 
1084 7 17.3209 2.36526 4.8396 0 0 0 0 0 0 
1085 7 17.3209 1.36526 3.8396 0 0 0 0 0 0 
1086 5 13.1308 -0.385557 3.50095 0 0 0 0 0 0 
1087 7 13.1308 -0.385557 4.50095 0 0 0 0 0 0 
1088 7 13.1308 0.614443 3.50095 0 0 0 0 0 0 
1570 1 26.394 -0.49174 1.12117 0 0 0 0 0 0 
1571 2 23.1907 -0.75254 2.2264 0 0 0 0 0 0 
1572 3 24.0015 0.291281 1.33556 0 0 0 0 0 0 
1573 4 24.0015 0.291281 1.38556 0 0 0 0 0 0 
1576 3 22.6915 0.030481 3.63613 0 0 0 0 0 0 
1577 4 22.6915 0.030481 3.68613 0 0 0 0 0 0 
1578 1 21.2664 1.09429 4.28893 0 0 0 0 0 0 
1579 1 24.2763 2.59439 1.11949 0 0 0 0 0 0 
1580 2 20.8026 2.81793 2.2292 0 0 0 0 0 0 
1581 3 19.7307 1.96785 1.34396 0 0 0 0 0 0 
1582 4 19.7307 1.96785 1.39396 0 0 0 0 0 0 
1583 3 22.119 3.26626 1.33752 0 0 0 0 0 0 
1584 4 22.119 3.26626 1.38752 0 0 0 0 0 0 
1587 3 21.3214 2.19201 3.62438 0 0 0 0 0 0 
1588 4 21.3214 2.19202 3.67438 0 0 0 0 0 0 
1598 5 24.0561 2.36526 3.8396 0 0 0 0 0 0 
1599 7 24.0561 2.36526 4.8396 0 0 0 0 0 0 
1600 7 24.0561 1.36526 3.8396 0 0 0 0 0 0 
9 3 4.52151 -3.07428 10.6252 0 0 0 0 0 0 
10 4 4.52151 -3.07428 10.6752 0 0 0 0 0 0 
11 1 3.10594 -2.46989 9.98733 0 0 0 0 0 0 
18 3 3.15144 -0.912745 10.6369 0 0 0 0 0 0 
19 4 3.15144 -0.912745 10.6869 0 0 0 0 0 0 
22 1 1.147 -1.84128 9.04661 0 0 0 0 0 0 
24 8 0.772072 -0.215311 6.51884 0 0 0 -9.15189 14.0827 -14.3219 
25 6 4.46179 -1.59641 8.48133 0 0 0 -3.73921 -2.94839 -7.73464 
26 8 4.46179 -1.59641 7.48133 0 0 0 -0.520638 0.161528 6.98377 
27 6 -0.705351 1.16435 8.42233 0 0 0 -6.85484 -4.63526 -2.5604 
28 8 -0.705351 1.16435 7.42233 0 0 0 0.367384 -1.13619 7.72557 
30 8 4.79784 -1.47719 6.56055 0 0 0 0.269895 0.195589 -8.96204 
40 3 2.42614 1.50835 5.77997 0 0 0 0 0 0 
41 4 2.42614 1.50835 5.82997 0 0 0 0 0 0 
54 5 1.69609 -3.49032 10.7603 0 0 0 0 0 0 
55 7 1.69609 -3.49032 9.76035 0 0 0 0 0 0 
56 7 1.69609 -2.49032 10.7603 0 0 0 0 0 0 
59 7 0.660287 1.62171 7.13625 0 0 0 0 0 0 
60 5 1.44074 -1.3648 7.04109 0 0 0 0 0 0 
61 7 1.44074 -1.3648 6.04109 0 0 0 0 0 0 
62 7 1.44074 -0.364799 7.04109 0 0 0 0 0 0 
65 7 2.76219 0.62757 8.70075 0 0 0 0 0 0 
535 3 11.2567 -3.07428 10.6252 0 0 0 0 0 0 
536 4 11.2567 -3.07428 10.6752 0 0 0 0 0 0 
537 1 9.84114 -2.46989 9.98733 0 0 0 0 0 0 
544 3 9.88664 -0.912745 10.6369 0 0 0 0 0 0 
545 4 9.88664 -0.912745 10.6869 0 0 0 0 0 0 
546 1 10.149 -0.08129 7.18607 0 0 0 0 0 0 
548 6 9.16134 1.50835 5.77997 0 0 0 5.34235 -2.42691 15.8909 
549 8 9.16134 1.50835 6.77997 0 0 0 -3.14349 2.45847 -9.08055 
550 6 6.02985 1.16435 8.42233 0 0 0 0.719898 2.50567 -7.6589 
551 8 6.02985 1.16435 7.42233 0 0 0 -0.34955 -0.764867 6.95334 
571 7 11.533 -1.47719 6.56055 0 0 0 0 0 0 
573 5 11.197 -1.59641 8.48133 0 0 0 0 0 0 
574 7 11.197 -1.59641 7.48133 0 0 0 0 0 0 
575 7 11.197 -0.596414 8.48133 0 0 0 0 0 0 
576 5 5.88616 -0.7395 10.4217 0 0 0 0 0 0 
577 7 5.88616 -0.7395 9.4217 0 0 0 0 0 0 
578 7 5.88616 0.2605 10.4217 0 0 0 0 0 0 
581 7 9.49739 0.62757 8.70075 0 0 0 0 0 0 
1037 3 17.9919 -3.07428 10.6252 0 0 0 0 0 0 
1038 4 17.9919 -3.07428 10.6752 0 0 0 0 0 0 
1039 1 16.5763 -2.46989 9.98733 0 0 0 0 0 0 
1040 6 12.6214 -0.7395 10.4217 0 0 0 7.43112 0.18774 -5.25891 
1041 8 12.6214 -0.7395 9.4217 0 0 0 -1.45274 0.519491 7.34334 
1048 3 16.6218 -0.912745 10.6369 0 0 0 0 0 0 
1049 4 16.6218 -0.912745 10.6869 0 0 0 0 0 0 
1051 1 14.6174 -1.84128 9.04661 0 0 0 0 0 0 
1052 6 15.8965 1.50835 5.77997 0 0 0 1.35096 -2.14968 13.3224 
1053 8 15.8965 1.50835 6.77997 0 0 0 0.640761 0.346593 -6.81177 
1055 8 18.2682 -1.47719 6.56055 0 0 0 0.881593 -0.370948 -8.56998 
1076 7 14.1307 1.62171 7.13625 0 0 0 0 0 0 
1077 5 14.9111 -1.3648 7.04109 0 0 0 0 0 0 
1078 7 14.9111 -1.3648 6.04109 0 0 0 0 0 0 
1079 7 14.9111 -0.364799 7.04109 0 0 0 0 0 0 
1080 5 17.9322 -1.59641 8.48133 0 0 0 0 0 0 
1081 7 17.9322 -1.59641 7.48133 0 0 0 0 0 0 
1082 7 17.9322 -0.596414 8.48133 0 0 0 0 0 0 
1554 3 24.7271 -3.07428 10.6252 0 0 0 0 0 0 
1555 4 24.7271 -3.07428 10.6752 0 0 0 0 0 0 
1556 1 23.3115 -2.46989 9.98733 0 0 0 0 0 0 
1563 6 23.357 -0.912745 10.6369 0 0 0 -4.41517 11.4045 6.2624 
1564 8 23.357 -0.912745 9.63693 0 0 0 -0.33754 4.96217 3.55348 
1566 6 24.6674 -1.59641 8.48133 0 0 0 0.508523 -0.30175 -4.66583 
1567 8 24.6674 -1.59641 7.48133 0 0 0 0.446241 -0.515982 4.41594 
1589 5 18.8154 1.26928 7.22021 0 0 0 0 0 0 
1590 7 18.8154 1.26928 6.22021 0 0 0 0 0 0 
1591 7 18.8154 0.269281 7.22021 0 0 0 0 0 0 
1592 5 22.6317 1.50835 5.77997 0 0 0 0 0 0 
1593 7 22.6317 1.50835 6.77997 0 0 0 0 0 0 
1594 7 22.6317 0.508347 5.77997 0 0 0 0 0 0 
1595 5 21.6463 -1.3648 7.04109 0 0 0 0 0 0 
1596 7 21.6463 -1.3648 6.04109 0 0 0 0 0 0 
1597 7 21.6463 -0.364799 7.04109 0 0 0 0 0 0 
1 1 1.48889 -3.5965 13.1401 0 0 0 0 0 0 
2 2 5.02075 -3.8573 12.0349 0 0 0 0 0 0 
3 3 3.80384 -4.38449 12.9117 0 0 0 0 0 0 
4 4 3.80384 -4.38449 12.9617 0 0 0 0 0 0 
5 3 -0.903617 -2.81348 12.9257 0 0 0 0 0 0 
6 4 -0.903617 -2.81348 12.9757 0 0 0 0 0 0 
14 3 1.56073 -1.13691 12.9173 0 0 0 0 0 0 
15 4 1.56073 -1.13691 12.9673 0 0 0 0 0 0 
93 1 6.89222 -6.7013 15.1149 0 0 0 0 0 0 
94 2 3.68888 -6.9621 16.2201 0 0 0 0 0 0 
95 3 4.49971 -5.91828 15.3292 0 0 0 0 0 0 
96 4 4.49971 -5.91828 15.3792 0 0 0 0 0 0 
102 1 4.77449 -3.61517 15.1132 0 0 0 0 0 0 
103 2 1.30073 -3.39162 16.2229 0 0 0 0 0 0 
104 3 0.22885 -4.24171 15.3376 0 0 0 0 0 0 
105 4 0.22885 -4.24171 15.3876 0 0 0 0 0 0 
106 3 2.61717 -2.9433 15.3312 0 0 0 0 0 0 
107 4 2.61717 -2.9433 15.3812 0 0 0 0 0 0 
407 4 5.89042 -5.07995 11.498 0 0 0 0 0 0 
527 1 8.22409 -3.5965 13.1401 0 0 0 0 0 0 
528 2 11.756 -3.8573 12.0349 0 0 0 0 0 0 
529 3 10.539 -4.38449 12.9117 0 0 0 0 0 0 
530 4 10.539 -4.38449 12.9617 0 0 0 0 0 0 
531 3 5.83158 -2.81348 12.9257 0 0 0 0 0 0 
532 4 5.83158 -2.81348 12.9757 0 0 0 0 0 0 
540 3 8.29593 -1.13691 12.9173 0 0 0 0 0 0 
541 4 8.29593 -1.13691 12.9673 0 0 0 0 0 0 
612 1 13.6274 -6.7013 15.1149 0 0 0 0 0 0 
613 2 10.4241 -6.9621 16.2201 0 0 0 0 0 0 
614 3 11.2349 -5.91828 15.3292 0 0 0 0 0 0 
615 4 11.2349 -5.91828 15.3792 0 0 0 0 0 0 
620 1 11.5097 -3.61517 15.1132 0 0 0 0 0 0 
621 2 8.03594 -3.39162 16.2229 0 0 0 0 0 0 
622 3 6.96405 -4.24171 15.3376 0 0 0 0 0 0 
623 4 6.96405 -4.24171 15.3876 0 0 0 0 0 0 
624 3 9.35237 -2.9433 15.3312 0 0 0 0 0 0 
625 4 9.35237 -2.9433 15.3812 0 0 0 0 0 0 
904 4 12.6256 -5.07995 11.498 0 0 0 0 0 0 
1029 1 14.9593 -3.5965 13.1401 0 0 0 0 0 0 
1030 2 18.4912 -3.8573 12.0349 0 0 0 0 0 0 
1031 3 17.2742 -4.38449 12.9117 0 0 0 0 0 0 
1032 4 17.2742 -4.38449 12.9617 0 0 0 0 0 0 
1033 3 12.5668 -2.81348 12.9257 0 0 0 0 0 0 
1034 4 12.5668 -2.81348 12.9757 0 0 0 0 0 0 
1044 3 15.0311 -1.13691 12.9173 0 0 0 0 0 0 
1045 4 15.0311 -1.13691 12.9673 0 0 0 0 0 0 
1126 1 20.3626 -6.7013 15.1149 0 0 0 0 0 0 
1127 2 17.1593 -6.9621 16.2201 0 0 0 0 0 0 
1128 3 17.9701 -5.91828 15.3292 0 0 0 0 0 0 
1129 4 17.9701 -5.91828 15.3792 0 0 0 0 0 0 
1137 1 18.2449 -3.61517 15.1132 0 0 0 0 0 0 
1138 2 14.7711 -3.39162 16.2229 0 0 0 0 0 0 
1139 3 13.6992 -4.24171 15.3376 0 0 0 0 0 0 
1140 4 13.6992 -4.24171 15.3876 0 0 0 0 0 0 
1141 3 16.0876 -2.9433 15.3312 0 0 0 0 0 0 
1142 4 16.0876 -2.9433 15.3812 0 0 0 0 0 0 
1420 4 19.3608 -5.07995 11.498 0 0 0 0 0 0 
1546 1 21.6945 -3.5965 13.1401 0 0 0 0 0 0 
1547 2 25.2264 -3.8573 12.0349 0 0 0 0 0 0 
1548 3 24.0094 -4.38449 12.9117 0 0 0 0 0 0 
1549 4 24.0094 -4.38449 12.9617 0 0 0 0 0 0 
1550 3 19.302 -2.81348 12.9257 0 0 0 0 0 0 
1551 4 19.302 -2.81348 12.9757 0 0 0 0 0 0 
1559 3 21.7663 -1.13691 12.9173 0 0 0 0 0 0 
1560 4 21.7663 -1.13691 12.9673 0 0 0 0 0 0 
1636 1 27.0978 -6.7013 15.1149 0 0 0 0 0 0 
1637 2 23.8945 -6.9621 16.2201 0 0 0 0 0 0 
1638 3 24.7053 -5.91828 15.3292 0 0 0 0 0 0 
1639 4 24.7053 -5.91828 15.3792 0 0 0 0 0 0 
1649 1 24.9801 -3.61517 15.1132 0 0 0 0 0 0 
1650 2 21.5063 -3.39162 16.2229 0 0 0 0 0 0 
1651 3 20.4344 -4.24171 15.3376 0 0 0 0 0 0 
1652 4 20.4344 -4.24171 15.3876 0 0 0 0 0 0 
1653 3 22.8228 -2.9433 15.3312 0 0 0 0 0 0 
1654 4 22.8228 -2.9433 15.3812 0 0 0 0 0 0 
1909 4 26.096 -5.07995 11.498 0 0 0 0 0 0 
87 1 4.11761 -6.29085 21.1797 0 0 0 0 0 0 
89 6 1.47584 -6.42487 19.5125 0 0 0 2.77746 -8.16474 23.987 
90 8 1.47584 -6.42487 20.5125 0 0 0 -2.2691 -1.7476 -5.11553 
91 6 5.50161 -7.68675 19.5542 0 0 0 -3.7893 7.28378 7.41876 
92 8 5.50161 -7.68675 20.5542 0 0 0 3.40595 -2.51482 -6.4706 
99 3 3.18963 -6.17908 17.6298 0 0 0 0 0 0 
100 4 3.18963 -6.17908 17.6798 0 0 0 0 0 0 
101 1 1.76457 -5.11527 18.2826 0 0 0 0 0 0 
110 3 1.81956 -4.01754 17.6181 0 0 0 0 0 0 
111 4 1.81956 -4.01754 17.6681 0 0 0 0 0 0 
112 5 0.364214 -6.59511 17.4946 0 0 0 0 0 0 
113 7 0.364214 -6.59511 18.4946 0 0 0 0 0 0 
114 7 0.364214 -5.59511 17.4946 0 0 0 0 0 0 
117 7 1.36406 -4.58784 21.1299 0 0 0 0 0 0 
118 5 3.12991 -4.70121 19.7737 0 0 0 0 0 0 
119 7 3.12991 -4.70121 20.7737 0 0 0 0 0 0 
120 7 3.12991 -5.70121 19.7737 0 0 0 0 0 0 
122 7 5.16556 -7.80597 21.475 0 0 0 0 0 0 
124 5 4.55429 -3.8443 17.8333 0 0 0 0 0 0 
125 7 4.55429 -3.8443 18.8333 0 0 0 0 0 0 
126 7 4.55429 -4.8443 17.8333 0 0 0 0 0 0 
607 1 6.70068 -4.49251 19.2206 0 0 0 0 0 0 
608 6 8.21104 -6.42487 19.5125 0 0 0 -5.45996 1.39745 18.2703 
609 8 8.21104 -6.42487 20.5125 0 0 0 1.01433 -2.01124 -5.4746 
610 6 12.2368 -7.68675 19.5542 0 0 0 -0.404939 7.44683 5.38448 
611 8 12.2368 -7.68675 20.5542 0 0 0 0.986524 -1.12457 -4.60052 
618 3 9.92483 -6.17908 17.6298 0 0 0 0 0 0 
619 4 9.92483 -6.17908 17.6798 0 0 0 0 0 0 
628 6 8.55476 -4.01754 17.6181 0 0 0 -10.8157 2.96816 3.62258 
629 8 8.55476 -4.01754 18.6181 0 0 0 3.22924 -0.476632 -5.55167 
630 5 9.86511 -4.70121 19.7737 0 0 0 0 0 0 
631 7 9.86511 -4.70121 20.7737 0 0 0 0 0 0 
632 7 9.86511 -5.70121 19.7737 0 0 0 0 0 0 
636 5 7.09941 -6.59511 17.4946 0 0 0 0 0 0 
637 7 7.09941 -6.59511 18.4946 0 0 0 0 0 0 
638 7 7.09941 -5.59511 17.4946 0 0 0 0 0 0 
639 5 11.2895 -3.8443 17.8333 0 0 0 0 0 0 
640 7 11.2895 -3.8443 18.8333 0 0 0 0 0 0 
641 7 11.2895 -4.8443 17.8333 0 0 0 0 0 0 
1114 1 17.588 -6.29085 21.1797 0 0 0 0 0 0 
1116 1 13.4359 -4.49251 19.2206 0 0 0 0 0 0 
1118 6 14.9462 -6.42487 19.5125 0 0 0 -18.7904 33.7053 -16.3022 
1119 8 14.9462 -6.42487 20.5125 0 0 0 -10.9919 12.4218 -13.3772 
1120 6 16.6003 -4.70121 19.7737 0 0 0 5.2403 2.17821 13.9617 
1121 8 16.6003 -4.70121 20.7737 0 0 0 -1.96569 0.992596 -8.0709 
1123 8 13.4688 -5.0452 21.416 0 0 0 -0.5297 -2.16142 9.00226 
1124 6 18.972 -7.68675 19.5542 0 0 0 3.2163 7.20203 11.2734 
1125 8 18.972 -7.68675 20.5542 0 0 0 0.148383 -3.02038 -7.12556 
1132 3 16.66 -6.17908 17.6298 0 0 0 0 0 0 
1133 4 16.66 -6.17908 17.6798 0 0 0 0 0 0 
1134 1 15.235 -5.11527 18.2826 0 0 0 0 0 0 
1135 6 18.0247 -3.8443 17.8333 0 0 0 9.28679 6.62204 9.8988 
1136 8 18.0247 -3.8443 18.8333 0 0 0 -3.13665 -1.17605 -8.07287 
1145 3 15.29 -4.01754 17.6181 0 0 0 0 0 0 
1146 4 15.29 -4.01754 17.6681 0 0 0 0 0 0 
1149 7 14.8345 -4.58784 21.1299 0 0 0 0 0 0 
1150 5 13.8346 -6.59511 17.4946 0 0 0 0 0 0 
1151 7 13.8346 -6.59511 18.4946 0 0 0 0 0 0 
1152 7 13.8346 -5.59511 17.4946 0 0 0 0 0 0 
1153 5 15.6149 -7.57436 21.0348 0 0 0 0 0 0 
1154 7 15.6149 -7.57436 20.0348 0 0 0 0 0 0 
1155 7 15.6149 -6.57436 21.0348 0 0 0 0 0 0 
1628 1 20.1711 -4.49251 19.2206 0 0 0 0 0 0 
1631 8 20.204 -5.0452 21.416 0 0 0 -0.714583 -0.722333 8.01066 
1634 6 25.7072 -7.68675 19.5542 0 0 0 -1.4143 1.52318 4.25227 
1635 8 25.7072 -7.68675 20.5542 0 0 0 0.581125 -0.48405 -5.19726 
1642 3 23.3952 -6.17908 17.6298 0 0 0 0 0 0 
1643 4 23.3952 -6.17908 17.6798 0 0 0 0 0 0 
1644 1 21.9702 -5.11527 18.2826 0 0 0 0 0 0 
1645 6 20.5698 -6.59511 17.4946 0 0 0 1.25479 6.5251 8.05843 
1646 8 20.5698 -6.59511 18.4946 0 0 0 -1.73222 -4.56459 -7.08908 
1647 6 24.7599 -3.8443 17.8333 0 0 0 6.09036 6.05144 3.95315 
1648 8 24.7599 -3.8443 18.8333 0 0 0 -1.35292 -1.6839 -6.52391 
1657 3 22.0252 -4.01754 17.6181 0 0 0 0 0 0 
1658 4 22.0252 -4.01754 17.6681 0 0 0 0 0 0 
1659 5 23.3355 -4.70121 19.7737 0 0 0 0 0 0 
1660 7 23.3355 -4.70121 20.7737 0 0 0 0 0 0 
1661 7 23.3355 -5.70121 19.7737 0 0 0 0 0 0 
1664 7 21.5697 -4.58784 21.1299 0 0 0 0 0 0 
1665 5 22.3501 -7.57436 21.0348 0 0 0 0 0 0 
1666 7 22.3501 -7.57436 20.0348 0 0 0 0 0 0 
1667 7 22.3501 -6.57436 21.0348 0 0 0 0 0 0 
69 1 2.19266 -9.80606 27.1338 0 0 0 0 0 0 
70 2 5.72452 -10.0669 26.0286 0 0 0 0 0 0 
71 3 4.50761 -10.594 26.9054 0 0 0 0 0 0 
72 4 4.50761 -10.594 26.9554 0 0 0 0 0 0 
73 3 -0.199847 -9.02304 26.9194 0 0 0 0 0 0 
74 4 -0.199847 -9.02304 26.9694 0 0 0 0 0 0 
77 3 5.22528 -9.28384 24.6189 0 0 0 0 0 0 
78 4 5.22528 -9.28384 24.6689 0 0 0 0 0 0 
81 3 2.2645 -7.34647 26.911 0 0 0 0 0 0 
82 4 2.2645 -7.34647 26.961 0 0 0 0 0 0 
85 3 3.85521 -7.1223 24.6306 0 0 0 0 0 0 
86 4 3.85521 -7.1223 24.6806 0 0 0 0 0 0 
121 5 5.16556 -7.80597 22.475 0 0 0 0 0 0 
123 7 5.16556 -6.80597 22.475 0 0 0 0 0 0 
467 4 6.59419 -11.2895 25.4917 0 0 0 0 0 0 
585 1 8.92786 -9.80606 27.1338 0 0 0 0 0 0 
586 2 12.4597 -10.0669 26.0286 0 0 0 0 0 0 
587 3 11.2428 -10.594 26.9054 0 0 0 0 0 0 
588 4 11.2428 -10.594 26.9554 0 0 0 0 0 0 
589 3 6.53535 -9.02304 26.9194 0 0 0 0 0 0 
590 4 6.53535 -9.02304 26.9694 0 0 0 0 0 0 
593 3 11.9605 -9.28384 24.6189 0 0 0 0 0 0 
594 4 11.9605 -9.28384 24.6689 0 0 0 0 0 0 
595 1 10.5449 -8.67944 23.981 0 0 0 0 0 0 
596 6 9.13506 -9.69988 24.754 0 0 0 -3.17581 -4.69303 -4.1668 
597 8 9.13506 -9.69988 23.754 0 0 0 -2.66697 -1.25062 5.67822 
600 3 8.9997 -7.34647 26.911 0 0 0 0 0 0 
601 4 8.9997 -7.34647 26.961 0 0 0 0 0 0 
604 3 10.5904 -7.1223 24.6306 0 0 0 0 0 0 
605 4 10.5904 -7.1223 24.6806 0 0 0 0 0 0 
633 5 6.58993 -6.94906 24.4154 0 0 0 0 0 0 
634 7 6.58993 -6.94906 23.4154 0 0 0 0 0 0 
635 7 6.58993 -5.94906 24.4154 0 0 0 0 0 0 
644 7 10.2012 -5.58199 22.6944 0 0 0 0 0 0 
968 4 13.3294 -11.2895 25.4917 0 0 0 0 0 0 
1089 1 15.6631 -9.80606 27.1338 0 0 0 0 0 0 
1090 2 19.1949 -10.0669 26.0286 0 0 0 0 0 0 
1091 3 17.978 -10.594 26.9054 0 0 0 0 0 0 
1092 4 17.978 -10.594 26.9554 0 0 0 0 0 0 
1093 3 13.2706 -9.02304 26.9194 0 0 0 0 0 0 
1094 4 13.2706 -9.02304 26.9694 0 0 0 0 0 0 
1097 3 18.6957 -9.28384 24.6189 0 0 0 0 0 0 
1098 4 18.6957 -9.28384 24.6689 0 0 0 0 0 0 
1099 2 18.6896 -7.80659 24.0387 0 0 0 0 0 0 
1100 3 18.636 -7.80597 22.475 0 0 0 0 0 0 
1101 4 18.636 -7.80597 22.525 0 0 0 0 0 0 
1102 3 13.3251 -6.94906 24.4154 0 0 0 0 0 0 
1103 4 13.3251 -6.94906 24.4654 0 0 0 0 0 0 
1104 6 15.8703 -9.69988 24.754 0 0 0 0.547699 4.99422 -5.29242 
1105 8 15.8703 -9.69988 23.754 0 0 0 0.419954 -3.78959 6.4463 
1108 3 15.7349 -7.34647 26.911 0 0 0 0 0 0 
1109 4 15.7349 -7.34647 26.961 0 0 0 0 0 0 
1112 3 17.3256 -7.1223 24.6306 0 0 0 0 0 0 
1113 4 17.3256 -7.1223 24.6806 0 0 0 0 0 0 
1117 1 15.3212 -8.05083 23.0403 0 0 0 0 0 0 
1122 6 13.4688 -5.0452 22.416 0 0 0 -4.59873 0.980994 -9.39885 
1158 7 16.9364 -5.58199 22.6944 0 0 0 0 0 0 
1200 6 20.1896 -7.80659 24.2387 0 0 0 -10.327 13.8034 -12.1611 
1201 8 20.1896 -7.80659 23.2387 0 0 0 22.8988 -1.21543 5.99799 
1488 4 20.0646 -11.2895 25.4917 0 0 0 0 0 0 
1601 1 22.3983 -9.80606 27.1338 0 0 0 0 0 0 
1602 2 25.9301 -10.0669 26.0286 0 0 0 0 0 0 
1603 3 24.7132 -10.594 26.9054 0 0 0 0 0 0 
1604 4 24.7132 -10.594 26.9554 0 0 0 0 0 0 
1605 3 20.0058 -9.02304 26.9194 0 0 0 0 0 0 
1606 4 20.0058 -9.02304 26.9694 0 0 0 0 0 0 
1609 3 25.4309 -9.28384 24.6189 0 0 0 0 0 0 
1610 4 25.4309 -9.28384 24.6689 0 0 0 0 0 0 
1611 2 25.4248 -7.80659 24.0387 0 0 0 0 0 0 
1612 3 25.3712 -7.80597 22.475 0 0 0 0 0 0 
1613 4 25.3712 -7.80597 22.525 0 0 0 0 0 0 
1614 3 0.083977 -7.80659 24.0387 0 0 0 0 0 0 
1615 4 0.133977 -7.80659 24.0387 0 0 0 0 0 0 
1616 6 22.6055 -9.69988 24.754 0 0 0 -0.303544 2.5276 -7.98982 
1617 8 22.6055 -9.69988 23.754 0 0 0 0.600982 -2.49722 7.14575 
1620 3 22.4701 -7.34647 26.911 0 0 0 0 0 0 
1621 4 22.4701 -7.34647 26.961 0 0 0 0 0 0 
1624 3 24.0608 -7.1223 24.6306 0 0 0 0 0 0 
1625 4 24.0608 -7.1223 24.6806 0 0 0 0 0 0 
1629 1 22.0564 -8.05083 23.0403 0 0 0 0 0 0 
1630 6 20.204 -5.0452 22.416 0 0 0 -5.02359 -6.99784 -5.99654 
1966 4 26.7998 -11.2895 25.4917 0 0 0 0 0 0 
20 1 -0.852901 3.7041 4.80714 0 0 0 0 0 0 
35 3 -2.3031 4.92979 1.34955 0 0 0 0 0 0 
36 4 -2.3031 4.92979 1.39955 0 0 0 0 0 0 
50 3 -0.216526 4.23433 2.8133 0 0 0 0 0 0 
51 4 -0.216526 4.23433 2.8633 0 0 0 0 0 0 
157 1 2.11715 5.71778 1.12117 0 0 0 0 0 0 
158 2 -1.08619 5.45698 2.2264 0 0 0 0 0 0 
159 3 -0.27536 6.5008 1.33556 0 0 0 0 0 0 
160 4 -0.27536 6.5008 1.38556 0 0 0 0 0 0 
163 3 -1.58544 6.24 3.63613 0 0 0 0 0 0 
164 4 -1.58544 6.24 3.68613 0 0 0 0 0 0 
165 1 -3.0105 7.30381 4.28893 0 0 0 0 0 0 
168 1 -0.000574 8.80391 1.11949 0 0 0 0 0 0 
170 3 -4.54622 8.17737 1.34396 0 0 0 0 0 0 
171 4 -4.54622 8.17737 1.39396 0 0 0 0 0 0 
178 5 -4.41085 5.82396 3.50095 0 0 0 0 0 0 
179 7 -4.41085 5.82396 4.50095 0 0 0 0 0 0 
180 7 -4.41085 6.82396 3.50095 0 0 0 0 0 0 
181 5 0.726542 4.73233 5.56055 0 0 0 0 0 0 
183 7 0.726542 5.73233 5.56055 0 0 0 0 0 0 
556 3 4.4321 4.92979 1.34955 0 0 0 0 0 0 
557 4 4.4321 4.92979 1.39955 0 0 0 0 0 0 
566 3 6.51867 4.23433 2.8133 0 0 0 0 0 0 
567 4 6.51867 4.23433 2.8633 0 0 0 0 0 0 
678 6 7.46174 4.73233 5.56055 0 0 0 0.494495 5.30038 11.7019 
680 1 8.85235 5.71778 1.12117 0 0 0 0 0 0 
681 2 5.64901 5.45698 2.2264 0 0 0 0 0 0 
682 3 6.45984 6.5008 1.33556 0 0 0 0 0 0 
683 4 6.45984 6.5008 1.38556 0 0 0 0 0 0 
686 3 5.14976 6.24 3.63613 0 0 0 0 0 0 
687 4 5.14976 6.24 3.68613 0 0 0 0 0 0 
688 2 5.14366 7.71725 4.21631 0 0 0 0 0 0 
693 6 2.32435 5.82396 3.50095 0 0 0 -1.35648 1.12415 6.24547 
694 8 2.32435 5.82396 4.50095 0 0 0 0.461319 -0.363931 -6.86294 
695 1 6.73463 8.80391 1.11949 0 0 0 0 0 0 
697 3 2.18898 8.17737 1.34396 0 0 0 0 0 0 
698 4 2.18899 8.17737 1.39396 0 0 0 0 0 0 
1050 1 12.6175 3.7041 4.80714 0 0 0 0 0 0 
1060 3 11.1673 4.92979 1.34955 0 0 0 0 0 0 
1061 4 11.1673 4.92979 1.39955 0 0 0 0 0 0 
1070 3 13.2539 4.23433 2.8133 0 0 0 0 0 0 
1071 4 13.2539 4.23433 2.8633 0 0 0 0 0 0 
1189 1 15.5876 5.71778 1.12117 0 0 0 0 0 0 
1190 2 12.3842 5.45698 2.2264 0 0 0 0 0 0 
1191 3 13.195 6.5008 1.33556 0 0 0 0 0 0 
1192 4 13.195 6.5008 1.38556 0 0 0 0 0 0 
1195 3 11.885 6.24 3.63613 0 0 0 0 0 0 
1196 4 11.885 6.24 3.68613 0 0 0 0 0 0 
1197 1 10.4599 7.30381 4.28893 0 0 0 0 0 0 
1198 6 9.05955 5.82396 3.50095 0 0 0 1.5713 3.77469 9.30853 
1199 8 9.05955 5.82396 4.50095 0 0 0 -1.87243 -3.63546 -7.46219 
1202 1 13.4698 8.80391 1.11949 0 0 0 0 0 0 
1204 3 8.92418 8.17737 1.34396 0 0 0 0 0 0 
1205 4 8.92419 8.17737 1.39396 0 0 0 0 0 0 
1218 5 14.1969 4.73233 5.56055 0 0 0 0 0 0 
1220 7 14.1969 5.73233 5.56055 0 0 0 0 0 0 
1574 3 17.9025 4.92979 1.34955 0 0 0 0 0 0 
1575 4 17.9025 4.92979 1.39955 0 0 0 0 0 0 
1585 3 19.9891 4.23433 2.8133 0 0 0 0 0 0 
1586 4 19.9891 4.23433 2.8633 0 0 0 0 0 0 
1690 1 22.3228 5.71778 1.12117 0 0 0 0 0 0 
1691 2 19.1194 5.45698 2.2264 0 0 0 0 0 0 
1692 3 19.9302 6.5008 1.33556 0 0 0 0 0 0 
1693 4 19.9302 6.5008 1.38556 0 0 0 0 0 0 
1696 3 18.6202 6.24 3.63613 0 0 0 0 0 0 
1697 4 18.6202 6.24 3.68613 0 0 0 0 0 0 
1698 1 17.1951 7.30381 4.28893 0 0 0 0 0 0 
1699 6 15.7947 5.82396 3.50095 0 0 0 0.149609 1.36856 7.26223 
1700 8 15.7947 5.82396 4.50095 0 0 0 -1.15305 -1.74672 -6.9584 
1701 1 20.205 8.80391 1.11949 0 0 0 0 0 0 
1703 3 15.6594 8.17737 1.34396 0 0 0 0 0 0 
1704 4 15.6594 8.17737 1.39396 0 0 0 0 0 0 
57 5 0.660287 2.62171 7.13625 0 0 0 0 0 0 
58 7 0.660287 2.62172 6.13625 0 0 0 0 0 0 
63 5 2.76219 1.62757 8.70075 0 0 0 0 0 0 
64 7 2.76219 1.62757 7.70075 0 0 0 0 0 0 
135 3 0.450212 3.13524 10.6252 0 0 0 0 0 0 
136 4 0.450212 3.13524 10.6752 0 0 0 0 0 0 
137 2 0.444112 4.61249 10.045 0 0 0 0 0 0 
138 3 0.390497 4.61311 8.48133 0 0 0 0 0 0 
139 4 0.390497 4.61311 8.53133 0 0 0 0 0 0 
152 1 -2.9243 4.36824 9.04661 0 0 0 0 0 0 
182 7 0.726542 4.73233 6.56055 0 0 0 0 0 0 
187 5 -2.3752 2.7192 10.7603 0 0 0 0 0 0 
188 7 -2.3752 2.7192 9.76035 0 0 0 0 0 0 
189 7 -2.3752 3.7192 10.7603 0 0 0 0 0 0 
192 7 -5.4615 6.4788 7.22021 0 0 0 0 0 0 
579 5 9.49739 1.62757 8.70075 0 0 0 0 0 0 
580 7 9.49739 1.62757 7.70075 0 0 0 0 0 0 
653 3 7.18541 3.13524 10.6252 0 0 0 0 0 0 
654 4 7.18541 3.13524 10.6752 0 0 0 0 0 0 
655 1 5.76985 3.73963 9.98733 0 0 0 0 0 0 
656 6 4.36 2.7192 10.7603 0 0 0 -6.82208 1.58044 -2.54434 
657 8 4.36 2.7192 9.76035 0 0 0 -0.642015 -5.13691 5.83778 
659 8 1.81487 5.47002 9.4217 0 0 0 17.4529 12.6092 3.63485 
668 1 6.07774 6.12823 7.18607 0 0 0 0 0 0 
671 1 3.8109 4.36824 9.04661 0 0 0 0 0 0 
672 6 7.1257 4.61311 8.48133 0 0 0 -2.71876 2.1551 -12.6944 
673 8 7.1257 4.61311 7.48133 0 0 0 0.876376 -3.00969 8.61978 
679 8 7.46174 4.73233 6.56055 0 0 0 1.68254 -2.18542 -9.42787 
708 5 4.10464 4.84472 7.04109 0 0 0 0 0 0 
709 7 4.10464 4.84472 6.04109 0 0 0 0 0 0 
710 7 4.10464 5.84472 7.04109 0 0 0 0 0 0 
1074 5 14.1307 2.62171 7.13625 0 0 0 0 0 0 
1075 7 14.1307 2.62172 6.13625 0 0 0 0 0 0 
1167 3 13.9206 3.13524 10.6252 0 0 0 0 0 0 
1168 4 13.9206 3.13524 10.6752 0 0 0 0 0 0 
1169 2 13.9145 4.61249 10.045 0 0 0 0 0 0 
1170 3 13.8609 4.61311 8.48133 0 0 0 0 0 0 
1171 4 13.8609 4.61311 8.53133 0 0 0 0 0 0 
1174 6 11.0952 2.7192 10.7603 0 0 0 2.17547 2.62765 -6.62644 
1175 8 11.0952 2.7192 9.76035 0 0 0 -0.0370674 -2.47169 7.33227 
1186 1 10.5461 4.36824 9.04661 0 0 0 0 0 0 
1187 6 15.5145 4.61249 10.245 0 0 0 -14.6766 9.40754 -13.8773 
1188 8 15.5145 4.61249 9.24499 0 0 0 21.6428 -1.58828 4.2775 
1217 7 11.8252 6.71787 5.77997 0 0 0 0 0 0 
1219 7 14.1969 4.73233 6.56055 0 0 0 0 0 0 
1223 7 8.0089 6.4788 7.22021 0 0 0 0 0 0 
1224 5 10.8398 4.84472 7.04109 0 0 0 0 0 0 
1225 7 10.8398 4.84472 6.04109 0 0 0 0 0 0 
1226 7 10.8398 5.84472 7.04109 0 0 0 0 0 0 
1565 1 21.4613 0.847705 9.42505 0 0 0 0 0 0 
1568 6 22.9678 1.62757 8.70075 0 0 0 4.34281 4.66827 -10.4088 
1569 8 22.9678 1.62757 7.70075 0 0 0 1.42683 -0.259045 6.75093 
1676 3 20.6558 3.13524 10.6252 0 0 0 0 0 0 
1677 4 20.6558 3.13524 10.6752 0 0 0 0 0 0 
1686 1 19.5481 6.12823 7.18607 0 0 0 0 0 0 
1711 5 17.575 4.84472 7.04109 0 0 0 0 0 0 
1712 7 17.575 4.84472 6.04109 0 0 0 0 0 0 
1713 7 17.575 5.84472 7.04109 0 0 0 0 0 0 
1714 5 17.8304 2.7192 10.7603 0 0 0 0 0 0 
1715 7 17.8304 2.7192 9.76035 0 0 0 0 0 0 
1716 7 17.8304 3.7192 10.7603 0 0 0 0 0 0 
1717 5 20.5961 4.61311 8.48133 0 0 0 0 0 0 
1718 7 20.5961 4.61311 7.48133 0 0 0 0 0 0 
1719 7 20.5961 5.61311 8.48133 0 0 0 0 0 0 
1722 7 14.7441 6.4788 7.22021 0 0 0 0 0 0 
12 1 -0.628832 -0.510368 13.1418 0 0 0 0 0 0 
16 3 -2.78615 0.161502 12.9238 0 0 0 0 0 0 
17 4 -2.78615 0.161502 12.9738 0 0 0 0 0 0 
97 3 -1.59933 -1.27977 15.3432 0 0 0 0 0 0 
98 4 -1.59933 -1.27977 15.3932 0 0 0 0 0 0 
127 1 -2.5824 2.61302 13.1401 0 0 0 0 0 0 
131 3 -4.97491 3.39604 12.9257 0 0 0 0 0 0 
132 4 -4.97491 3.39604 12.9757 0 0 0 0 0 0 
227 2 -0.382419 -0.752577 16.2201 0 0 0 0 0 0 
241 3 -3.84244 1.96781 15.3376 0 0 0 0 0 0 
242 4 -3.84245 1.96781 15.3876 0 0 0 0 0 0 
7 3 1.81912 1.12957 11.448 0 0 0 0 0 0 
8 4 1.81912 1.12957 11.498 0 0 0 0 0 0 
13 2 2.63261 -0.286826 12.0321 0 0 0 0 0 0 
128 2 0.949458 2.35222 12.0349 0 0 0 0 0 0 
129 3 -0.267455 1.82503 12.9117 0 0 0 0 0 0 
130 4 -0.267455 1.82503 12.9617 0 0 0 0 0 0 
226 1 2.82092 -0.491777 15.1149 0 0 0 0 0 0 
228 3 0.42841 0.291244 15.3292 0 0 0 0 0 0 
229 4 0.42841 0.291244 15.3792 0 0 0 0 0 0 
239 1 0.703196 2.59435 15.1132 0 0 0 0 0 0 
533 3 8.55432 1.12957 11.448 0 0 0 0 0 0 
534 4 8.55432 1.12957 11.498 0 0 0 0 0 0 
538 1 6.10637 -0.510368 13.1418 0 0 0 0 0 0 
539 2 9.36781 -0.286826 12.0321 0 0 0 0 0 0 
542 3 3.94905 0.161502 12.9238 0 0 0 0 0 0 
543 4 3.94905 0.161502 12.9738 0 0 0 0 0 0 
616 3 5.13587 -1.27977 15.3432 0 0 0 0 0 0 
617 4 5.13587 -1.27977 15.3932 0 0 0 0 0 0 
645 1 4.1528 2.61302 13.1401 0 0 0 0 0 0 
646 2 7.68466 2.35222 12.0349 0 0 0 0 0 0 
647 3 6.46775 1.82503 12.9117 0 0 0 0 0 0 
648 4 6.46774 1.82503 12.9617 0 0 0 0 0 0 
649 3 1.76029 3.39604 12.9257 0 0 0 0 0 0 
650 4 1.76029 3.39604 12.9757 0 0 0 0 0 0 
733 1 9.55612 -0.491777 15.1149 0 0 0 0 0 0 
734 2 6.35278 -0.752577 16.2201 0 0 0 0 0 0 
735 3 7.16361 0.291244 15.3292 0 0 0 0 0 0 
736 4 7.16361 0.291244 15.3792 0 0 0 0 0 0 
744 1 7.4384 2.59435 15.1132 0 0 0 0 0 0 
746 3 2.89276 1.96781 15.3376 0 0 0 0 0 0 
747 4 2.89276 1.96781 15.3876 0 0 0 0 0 0 
1035 3 15.2895 1.12957 11.448 0 0 0 0 0 0 
1036 4 15.2895 1.12957 11.498 0 0 0 0 0 0 
1042 1 12.8416 -0.510368 13.1418 0 0 0 0 0 0 
1043 2 16.103 -0.286826 12.0321 0 0 0 0 0 0 
1046 3 10.6843 0.161502 12.9238 0 0 0 0 0 0 
1047 4 10.6843 0.161502 12.9738 0 0 0 0 0 0 
1130 3 11.8711 -1.27977 15.3432 0 0 0 0 0 0 
1131 4 11.8711 -1.27977 15.3932 0 0 0 0 0 0 
1159 1 10.888 2.61302 13.1401 0 0 0 0 0 0 
1160 2 14.4199 2.35222 12.0349 0 0 0 0 0 0 
1161 3 13.2029 1.82503 12.9117 0 0 0 0 0 0 
1162 4 13.2029 1.82503 12.9617 0 0 0 0 0 0 
1163 3 8.49549 3.39604 12.9257 0 0 0 0 0 0 
1164 4 8.49549 3.39604 12.9757 0 0 0 0 0 0 
1253 1 16.2913 -0.491777 15.1149 0 0 0 0 0 0 
1254 2 13.088 -0.752577 16.2201 0 0 0 0 0 0 
1255 3 13.8988 0.291244 15.3292 0 0 0 0 0 0 
1256 4 13.8988 0.291244 15.3792 0 0 0 0 0 0 
1266 1 14.1736 2.59435 15.1132 0 0 0 0 0 0 
1268 3 9.62795 1.96781 15.3376 0 0 0 0 0 0 
1269 4 9.62796 1.96781 15.3876 0 0 0 0 0 0 
1552 3 22.0247 1.12957 11.448 0 0 0 0 0 0 
1553 4 22.0247 1.12957 11.498 0 0 0 0 0 0 
1557 1 19.5768 -0.510368 13.1418 0 0 0 0 0 0 
1558 2 22.8382 -0.286826 12.0321 0 0 0 0 0 0 
1561 3 17.4195 0.161502 12.9238 0 0 0 0 0 0 
1562 4 17.4195 0.161502 12.9738 0 0 0 0 0 0 
1640 3 18.6063 -1.27977 15.3432 0 0 0 0 0 0 
1641 4 18.6063 -1.27977 15.3932 0 0 0 0 0 0 
1668 1 17.6232 2.61302 13.1401 0 0 0 0 0 0 
1669 2 21.1551 2.35222 12.0349 0 0 0 0 0 0 
1670 3 19.9381 1.82503 12.9117 0 0 0 0 0 0 
1671 4 19.9381 1.82503 12.9617 0 0 0 0 0 0 
1672 3 15.2307 3.39604 12.9257 0 0 0 0 0 0 
1673 4 15.2307 3.39604 12.9757 0 0 0 0 0 0 
1750 1 23.0265 -0.491777 15.1149 0 0 0 0 0 0 
1751 2 19.8232 -0.752577 16.2201 0 0 0 0 0 0 
1752 3 20.634 0.291244 15.3292 0 0 0 0 0 0 
1753 4 20.634 0.291244 15.3792 0 0 0 0 0 0 
1758 1 20.9088 2.59435 15.1132 0 0 0 0 0 0 
1760 3 16.3632 1.96781 15.3376 0 0 0 0 0 0 
1761 4 16.3632 1.96781 15.3876 0 0 0 0 0 0 
88 1 -0.149131 -2.50546 18.8008 0 0 0 0 0 0 
108 3 0.487244 -1.97523 16.807 0 0 0 0 0 0 
109 4 0.487244 -1.97523 16.857 0 0 0 0 0 0 
115 5 1.36406 -3.58784 21.1299 0 0 0 0 0 0 
116 7 1.36406 -3.58784 20.1299 0 0 0 0 0 0 
216 6 -2.59545 -0.215348 19.5125 0 0 0 -19.6153 33.3194 -24.1133 
217 8 -2.59545 -0.215348 20.5125 0 0 0 -8.76581 15.0288 -14.0837 
219 8 1.09427 -1.59645 21.475 0 0 0 -0.696763 -0.327149 8.13083 
224 6 1.43031 -1.47723 19.5542 0 0 0 3.76423 1.72303 4.50331 
225 8 1.43031 -1.47723 20.5542 0 0 0 0.661512 0.72008 -7.56325 
232 3 -0.881666 0.030444 17.6298 0 0 0 0 0 0 
233 4 -0.881666 0.030444 17.6798 0 0 0 0 0 0 
234 2 -0.887766 1.50769 18.21 0 0 0 0 0 0 
252 5 -1.92679 -1.36484 21.0348 0 0 0 0 0 0 
253 7 -1.92679 -1.36484 20.0348 0 0 0 0 0 0 
254 7 -1.92679 -0.364836 21.0348 0 0 0 0 0 0 
261 5 -3.70708 -0.385594 17.4946 0 0 0 0 0 0 
262 7 -3.70708 -0.385594 18.4946 0 0 0 0 0 0 
263 7 -3.70708 0.614406 17.4946 0 0 0 0 0 0 
606 1 6.58607 -2.50546 18.8008 0 0 0 0 0 0 
626 3 7.22244 -1.97523 16.807 0 0 0 0 0 0 
627 4 7.22244 -1.97523 16.857 0 0 0 0 0 0 