ITEM: TIMESTEP
4200000
ITEM: NUMBER OF ATOMS
2025
ITEM: BOX BOUNDS xy xz yz pp pp pp
-1.7072869170153862e+01 2.8844061583443924e+01 -1.7097548927754112e+01
-1.2541879109666754e+01 2.4877374224852879e+01 1.9279413410461419e+00
3.0330896269950003e-01 2.7684058037300858e+01 -1.2502588884814754e+01
ITEM: ATOMS id type x y z vx vy vz fx fy fz 
1579 1 24.3399 1.94179 2.4032 0.381664 3.06842 -2.4587 0.4179 0.543463 -0.0472323 
1948 7 18.9355 1.6181 5.24866 -13.3399 -0.654398 8.1936 1.08582 -0.325555 0.0545792 
568 3 7.7063 1.57458 4.93629 -7.91673 4.41771 0.269935 -0.436316 0.183029 -0.498633 
582 5 6.64539 -1.68485 4.58422 5.00648 -1.94506 -4.76138 0.566469 -0.121922 -0.0173682 
1595 5 11.1904 1.36538 4.94501 5.41916 0.443283 9.00786 0.871709 0.0543481 0.106105 
1597 7 11.6611 0.582475 4.4188 24.6108 -14.8309 7.16563 -0.336868 1.02527 1.01736 
1055 8 20.4733 -0.108868 5.65982 -11.4557 -13.5209 1.58663 0.303806 1.62034 -0.048087 
1056 1 20.2555 -1.0078 3.01051 0.168771 -2.38906 -3.42718 0.147313 0.403965 0.0547385 
38 4 2.33817 -1.16969 4.33507 2.99355 12.1631 25.0106 1.84216 0.275404 1.35116 
39 2 1.74309 -0.067985 5.34601 0.849039 -0.74277 3.47473 -0.674918 -0.379778 -0.899674 
37 3 2.31984 -1.25792 4.37441 4.56669 -3.48259 1.7276 -1.23696 -0.182207 -0.177926 
1947 5 17.9607 1.79663 5.14021 -0.634074 1.92906 -1.06587 -0.353844 0.985952 -0.732497 
44 1 4.21394 1.94312 2.20833 4.23181 1.48298 -1.53485 -0.324052 1.18675 -1.01274 
45 2 0.757098 2.01847 3.1506 1.15112 3.14896 0.556647 -0.677363 0.725143 -0.670116 
46 3 -0.349814 1.27744 2.26483 6.8113 -2.89942 -6.41747 2.02246 -1.78981 -0.604201 
47 4 -0.229753 1.31992 2.33401 24.4336 -9.70013 8.93644 -1.55501 1.46123 0.322895 
48 3 2.00116 2.43639 2.28025 -2.40162 1.40508 -0.48756 0.0652634 -0.700901 -0.342224 
49 4 1.89135 2.38854 2.35052 30.4111 0.0881236 -0.0833159 0.485638 0.901384 -0.104903 
52 3 1.16451 1.15414 4.42404 -4.70927 -2.86242 3.21631 0.0377169 -0.774349 -0.419233 
53 4 1.17133 1.13151 4.37832 -1.85399 -7.57471 -7.04042 -0.110706 0.455838 0.910194 
451 5 13.9769 -1.69035 4.97638 -2.91958 1.82193 -0.973441 -2.08708 0.546654 0.186953 
1572 3 24.0283 -0.158871 2.57292 -1.72048 1.51149 0.720756 -0.788409 -1.22349 0.84514 
1582 4 20.2891 1.49432 2.89856 7.4901 1.86367 10.353 0.0475012 0.0319132 -0.550407 
1584 4 22.2343 2.84014 2.95938 -1.0477 -19.4284 -13.6971 0.86371 0.559352 0.393194 
1576 3 23.7557 -0.805956 5.21954 -2.12885 3.98619 -0.750358 0.354456 0.410394 -0.287839 
1073 8 15.2481 0.82847 5.46464 -5.32727 -3.82432 11.6943 1.51029 -1.13061 -0.429211 
569 4 7.65887 1.63057 4.81636 -0.634714 11.1808 8.9222 0.493809 0.676339 -0.40678 
555 4 10.7882 -0.24783 2.83161 -2.04136 8.52024 15.2914 0.961564 0.674292 -0.735891 
558 3 9.62161 -1.20132 4.92537 -1.21905 -6.29563 1.16355 -0.113629 -0.738981 -0.540712 
1581 3 20.2138 1.42544 2.83362 -3.30554 -1.56029 2.24888 -0.456384 -0.981663 0.587913 
560 1 10.8819 2.00521 2.47668 3.58225 -4.2533 0.448225 0.283445 0.519249 -0.402415 
561 2 7.3389 2.2045 3.50809 -2.42632 -0.937064 -3.41066 -0.446107 -0.624776 0.240558 
562 3 6.33185 1.25817 2.74038 -2.62123 0.340906 -1.08043 -0.129541 -0.0468364 -0.265145 
563 4 6.41493 1.33701 2.80735 -5.1416 0.20359 0.246803 -0.113002 -1.01651 0.441608 
564 3 8.56626 2.54783 2.56682 -4.04964 0.263683 1.29334 2.05188 -0.266798 0.10179 
565 4 8.48162 2.52253 2.6283 13.6437 -18.174 -10.9571 -0.252707 0.467137 -0.0182648 
453 7 14.7712 -1.08821 5.10369 -13.1136 -2.25864 11.9297 0.885376 -0.0191386 -0.0295292 
585 1 7.80914 2.0067 0.404573 3.1223 0.573139 -3.50985 -0.279437 0.183195 -0.521152 
559 4 9.67253 -1.24332 4.80205 -7.29214 -33.6482 16.7847 0.027761 0.99828 0.325806 
554 3 10.8421 -0.136436 2.76382 3.467 -1.63442 0.126204 -0.15505 -0.413099 1.86177 
547 1 5.26907 0.381454 5.11034 3.19984 -0.0606927 -0.433114 0.211526 1.47019 0.187914 
1588 4 21.4777 1.73092 5.06052 -4.67448 -14.8919 0.728822 0.252271 0.480495 0.190356 
1587 3 21.4998 1.65633 5.17985 2.96369 0.810656 3.4246 0.390347 0.217905 -0.887054 
1583 3 22.3465 2.87309 2.91047 -8.25295 -5.12686 3.94085 -0.433082 0.0176161 0.307493 
1573 4 24.0046 -0.273159 2.65236 -12.353 1.49076 7.88606 0.74084 1.08081 0.400109 
1072 6 14.6561 1.42108 5.03143 -1.8579 -5.06205 -2.3319 -1.35458 2.09742 -0.735979 
34 4 4.18087 -0.189303 3.02661 14.7214 6.66296 -9.54983 0.326604 0.766257 1.34445 
1054 6 20.2768 -0.998382 5.41906 -1.46044 -0.804279 2.37277 -0.962904 -1.44356 -0.122493 
1062 3 16.7125 -0.812422 5.28213 5.68155 -1.44019 4.37252 -0.760805 2.33397 -0.305239 
1063 4 16.7627 -0.867531 5.16687 2.65246 4.77135 4.14982 0.41426 -0.974407 1.22119 
1064 1 17.7943 2.06291 2.62209 3.79527 2.91451 -2.65658 0.30414 -0.630834 0.313116 
1065 2 14.1805 2.15088 3.45858 8.11141 0.382362 0.742457 -0.928678 0.963967 2.25444 
1066 3 13.4581 1.08769 2.63445 -1.88208 10.0684 -3.31691 -0.0174942 -0.196416 -0.546188 
1067 4 13.5421 1.19028 2.72225 -19.3643 18.0023 -4.05964 -0.771169 -0.895861 -0.244831 
1068 3 15.3858 2.72081 2.68142 7.79634 -2.12556 1.99597 1.67754 0.961698 -0.314482 
1069 4 15.2832 2.67907 2.75352 -5.39388 1.77867 0.585435 0.212882 -0.90063 0.0398628 
33 3 4.25248 -0.0661672 3.01643 -0.628193 -2.06423 6.42725 -0.810205 -1.88007 -1.27939 
1571 2 23.8631 -1.32636 3.67697 -0.0196964 -2.39118 4.55264 0.768518 -0.0286073 0.286066 
1058 3 17.7313 -0.280797 2.85927 -1.02306 -3.43823 -3.71947 1.05205 0.428755 -0.039278 
1580 2 21.0938 2.37112 3.79751 0.995544 -0.0484684 -1.69344 -0.344644 -2.27332 0.280874 
1577 4 23.7781 -0.859571 5.11034 -28.5942 -7.28541 -1.75699 -0.415271 -0.313688 0.146104 
1057 2 17.0026 -1.3213 3.82231 -1.71351 -4.31613 -4.61143 -1.31007 -0.657804 -1.77543 
1059 4 17.6837 -0.378327 2.92255 -6.65345 -5.91248 -2.38119 -0.254394 0.281123 0.275176 
1596 7 11.8547 1.9782 5.49134 16.179 -29.5646 2.09659 -0.523486 -0.859788 -0.831635 
1601 1 21.1917 2.02841 0.714863 -3.13708 2.98775 2.62019 0.480136 -0.024352 -0.459757 
1949 7 17.4652 1.1565 5.72947 14.7773 2.8035 -6.09054 -0.675095 -0.658811 0.164473 
1070 3 13.0552 3.29372 3.90337 -1.47171 5.0016 0.146711 1.99025 -1.92648 -0.281403 
584 7 7.61528 -1.84574 4.88129 28.128 -3.86795 10.3438 0.366939 0.412791 -0.310594 
553 2 10.1206 -1.40212 3.41296 3.95912 2.11695 1.22776 -1.78398 -1.17361 -3.43344 
1071 4 13.1099 3.28614 3.83265 -11.4091 1.65715 15.3457 -0.638074 1.06476 0.246887 
1605 3 18.9591 2.50647 0.375265 3.44109 -2.79301 2.27418 -1.31232 1.4549 -1.48611 
1089 1 14.5138 1.74104 0.441443 -2.15566 0.114055 -1.86948 -0.398306 0.542906 -0.81953 
51 4 0.0613627 3.3871 3.69183 6.66791 -5.49608 8.25562 0.260016 -1.43623 0.120782 
458 7 5.68098 -2.1845 9.65385 -29.1905 7.40104 -11.3626 0.164573 0.90524 -0.795228 
934 6 20.1037 -2.48859 7.83487 1.4309 0.944611 -1.84902 0.496147 0.785212 0.661736 
11 1 2.84145 -2.17469 10.1845 0.828028 4.50897 -3.43861 -1.77243 -0.0653794 -0.631522 
546 1 9.134 0.573475 6.276 2.054 2.42599 2.02213 -0.00605258 -0.47103 0.726704 
55 7 0.199503 -0.597221 11.0876 -14.7607 10.5012 -12.8048 0.803878 -0.000879715 0.0313685 
672 6 10.3823 1.23224 8.2831 0.999952 -1.06392 1.6799 -1.35874 -0.999905 -0.480745 
580 7 3.84555 0.658507 9.57059 -9.48123 -11.1042 8.60211 -0.0799069 -0.0981635 0.222662 
1556 1 21.8898 -2.37966 6.21581 -4.26442 -3.86841 -0.909731 0.932656 -0.989465 -0.69195 
22 1 23.0999 -2.04533 9.59054 -1.47026 4.33818 -1.23468 -0.151471 0.121857 0.0374084 
575 7 8.79708 -1.68335 11.0713 -11.9916 -28.1045 6.77823 1.34285 1.4863 0.249926 
920 8 14.613 -4.04941 10.8075 -7.19801 -3.37893 11.2567 0.191938 -0.0790745 0.187561 
535 3 10.6149 -2.7312 10.7447 -0.832849 -0.75902 3.53181 -0.819349 0.500176 1.98307 
457 5 5.80263 -1.31613 9.07622 1.92898 -7.60935 4.49137 -0.128408 -2.17817 0.737448 
21 1 25.6958 -2.35181 6.27899 4.6747 2.75873 1.27038 0.49994 0.691788 0.32742 
41 4 0.683897 -0.584841 6.14041 -0.0132594 27.0107 -7.96404 0.0897668 0.62389 0.973169 
56 7 -1.22767 -0.817087 10.5194 -5.56594 -10.0409 9.16742 -0.617417 -0.391274 0.401314 
1037 3 18.2407 -2.53413 10.7678 -2.0124 7.79865 3.34859 -0.331175 -0.160012 -0.589783 
1436 1 19.3377 -4.06684 9.37275 3.99173 5.29727 1.52074 0.139932 -0.139597 -0.664762 
1041 8 8.28648 -1.50974 8.13541 8.54462 -4.05561 4.73282 1.31506 0.406997 -0.571299 
40 3 0.575017 -0.635531 6.23918 5.13661 -1.30124 -6.54398 0.296675 -0.160746 -0.196082 
1442 8 20.4664 -2.07766 10.8415 0.737741 1.63496 33.8953 -0.860005 0.624507 0.200228 
1591 7 18.7972 -0.599693 10.9431 -9.65491 -9.37248 15.2291 0.179548 -0.381268 -0.138308 
1593 7 15.9951 -0.448316 6.90208 -7.15593 18.2311 7.822 -0.413534 -0.0443588 0.232954 
423 8 7.5632 -3.07008 7.41777 17.2426 10.2678 -46.0782 0.719371 -1.50545 -0.18472 
537 1 10.8442 -0.783979 9.41825 -1.15375 2.69891 0.457846 -0.176609 -0.377435 0.202426 
43 4 2.86142 0.488382 6.1111 -7.155 -22.2196 -0.93696 -0.963379 -1.05328 0.668825 
949 5 5.06603 -1.09571 6.67605 -5.49534 2.0886 3.21827 -0.752946 -1.35406 1.23659 
1594 7 14.5361 -0.139393 7.38849 -13.8889 6.43113 21.8318 -0.840373 0.254751 -0.042494 
26 8 -1.37744 -0.892277 9.01783 -9.17316 -13.4928 -10.1724 0.13514 -0.182302 -0.637113 
1842 7 1.18899 0.299199 8.10517 -27.1786 14.4434 -9.07488 -0.17451 -0.110832 -0.134359 
551 8 6.43933 1.16915 7.99212 1.01185 -2.64787 -4.75996 0.142349 -0.0445466 -0.259211 
1927 6 0.96712 -3.5405 10.3314 2.36838 3.18849 -0.309603 0.0539514 1.10205 -0.301209 
1566 6 22.093 -0.411162 7.95718 -3.53721 4.05347 6.11043 0.391747 -0.150342 0.707771 
919 6 14.64 -3.23429 10.3267 7.32697 2.04626 -0.905377 -0.169634 0.49213 -0.486403 
1578 1 23.29 1.12025 6.51506 -2.86329 5.29814 2.09953 -0.37951 -0.0681642 -0.596428 
459 7 5.80156 -0.649599 9.83109 -6.49785 18.7701 -15.1723 -0.107788 1.03573 0.69166 
935 8 20.4781 -2.01623 8.57872 -10.5804 -2.42554 15.1417 -0.392927 -0.095866 -0.605097 
1921 1 25.7408 -3.98261 9.29312 0.295473 3.57311 -1.55849 0.352923 0.109706 0.284898 
42 3 2.95212 0.51348 6.18976 -1.79989 3.79874 0.111331 0.817796 -0.00813677 0.0735829 
1567 8 21.3689 -0.432559 7.34826 15.9394 -21.6207 2.41055 -0.857914 0.166678 -0.129141 
1592 5 15.3972 -0.513757 7.74248 0.116482 -1.82648 5.21925 1.18194 -0.0775116 -0.393113 
57 5 3.86901 -3.69675 8.70626 -3.03418 2.26687 2.6831 2.37477 -0.838719 -3.41272 
1039 1 16.2221 -1.81941 9.62189 -3.06693 -1.17354 1.27022 0.526477 0.21032 1.46433 
62 7 3.39557 -0.787017 7.49851 17.385 8.23137 -20.6607 0.450972 0.498158 -0.588281 
25 6 25.2103 -1.69941 8.61347 1.06375 -8.61426 6.02896 0.0509474 0.120358 0.127808 
1040 6 9.18762 -1.39244 7.81919 3.30818 -4.96991 1.09557 -1.25159 -0.568433 0.514567 
951 7 4.4593 -1.90457 6.44922 13.992 3.7217 18.3651 0.104278 0.145606 -0.136041 
1048 3 16.6834 0.188965 10.6767 -1.66838 -1.87268 2.52756 -1.4829 -0.576435 2.05825 
921 6 17.2029 -3.27706 8.10215 -0.619125 2.88375 -0.0335371 0.80895 0.764351 -0.451406 
1437 1 18.2581 -1.94222 6.49533 5.692 -1.7488 1.40279 1.3405 -0.589309 0.150565 
536 4 10.6657 -2.77079 10.8535 3.61084 5.42996 -11.0409 1.41775 0.0198675 -1.44706 
1835 5 -1.17368 1.117 6.83662 -1.48642 -10.6913 -4.93497 0.435426 -0.984822 -1.13889 
30 8 12.6841 -1.83463 7.34331 4.14093 30.4596 -5.12192 -0.0853656 -0.417904 0.321246 
1441 6 21.2401 -2.61056 10.7471 3.21446 -1.24425 3.38735 0.572453 -0.832624 -0.448718 
1841 5 0.873978 1.02541 8.75161 -3.08489 -2.11745 0.957552 0.929535 -0.354017 0.644484 
60 5 2.72617 -1.23629 8.1056 2.29458 -7.5075 -4.92182 -0.142894 -0.00570236 1.10552 
18 3 2.44203 -0.0810836 10.9351 -0.114459 -5.59203 1.90697 -0.481466 -0.783716 -0.12274 
61 7 1.84185 -1.27984 7.63479 -35.5167 27.3213 -20.5818 -0.911661 -0.21745 -0.801195 
29 6 12.1499 -2.32156 7.96754 0.0595475 -4.19677 1.4907 0.0913349 0.992512 -0.611791 
950 7 5.31931 -1.2585 7.70589 -0.0172027 13.263 12.5134 0.256216 0.571457 -0.822865 
1038 4 18.2512 -2.59072 10.8824 -5.7767 -26.032 9.26731 0.645121 0.0551328 0.721806 
1081 7 13.3192 -1.2592 10.7855 -17.8856 -28.6568 -1.17181 -0.434644 0.776486 0.392628 
1836 7 -0.894273 0.661386 5.94324 8.37025 -10.4371 -23.1571 -0.346074 0.430888 0.469825 
1080 5 12.8605 -0.318847 10.6815 -0.4049 -4.47408 -2.92169 0.891643 -0.259567 -0.365244 
1837 7 -0.38616 0.754451 7.38132 13.7108 3.74913 22.3937 -0.17279 0.154663 0.564188 
419 1 9.02501 -3.91446 9.62856 7.0291 -0.339387 1.45289 -0.227829 -0.327151 -0.355275 
573 5 7.97184 -2.22283 11.0483 13.5815 -4.36426 -1.92605 -1.24139 -2.13449 -0.186266 
1554 3 24.5305 -2.49409 11.2298 8.68224 2.03561 -4.81488 0.706726 -1.75253 0.445855 
550 6 7.22579 1.4899 7.56138 2.80352 -0.425617 1.23696 0.0747264 0.0984803 0.692779 
19 4 2.41646 -0.0549793 11.0645 -12.9316 25.977 -10.2512 0.293956 0.340904 0.341926 
1564 8 23.2474 0.443231 10.1401 11.0545 22.3702 -6.47338 1.9187 0.878957 -4.10614 
1928 8 0.575015 -3.54647 11.1952 18.3339 6.95976 -6.54753 0.168133 -0.0947522 0.179173 
9 3 4.59537 -2.18053 11.1904 4.1769 -2.98932 3.53879 2.80601 -0.580214 1.1659 
1 1 1.47994 -2.83189 13.9375 4.0503 2.48148 1.83354 0.529955 0.339433 -0.0221355 
2 2 5.03762 -2.97249 12.5304 -2.56203 -0.47372 -4.40827 -0.225038 4.10685 -0.114999 
3 3 3.74946 -3.29344 13.4257 -3.63701 4.89942 -2.89902 -0.477076 -0.681789 0.741608 
4 4 3.8529 -3.29306 13.3684 24.1482 -5.27372 3.94311 0.288018 -0.615799 -0.924688 
5 3 -0.807707 -2.4884 13.4942 0.201014 4.63218 0.58873 -0.991904 0.618826 -1.5143 
6 4 -0.88845 -2.55701 13.4177 6.70362 11.4665 18.6142 0.145777 -0.402762 0.587526 
903 3 12.3472 -4.43936 11.6783 -1.94508 -0.191694 -2.59052 0.452586 -0.697082 0.489924 
10 4 4.63978 -2.26042 11.3 7.66409 6.15665 24.2276 -1.30088 -0.194218 -0.0980106 
996 4 9.48969 -6.58089 15.7 -16.2992 -5.17523 11.1227 -0.247068 0.996405 -1.01203 
1419 3 19.3005 -4.28422 12.432 -4.07309 -2.81038 0.116871 0.572437 -1.15779 -1.16661 
95 3 4.80648 -5.47761 15.4353 3.64104 -2.72176 0.66277 0.540693 1.86982 -2.08419 
96 4 4.75204 -5.52285 15.5034 10.6211 -1.39083 5.57931 -0.482301 0.110096 0.270173 
102 1 4.8575 -2.96423 15.7242 0.585135 -1.13671 -1.8801 -0.471302 0.414587 -0.480044 
612 1 13.8014 -5.63829 15.2231 2.57589 -0.0178062 3.61085 -0.383236 -0.303132 1.02621 
1127 2 17.3102 -5.94008 16.3791 -2.62315 -5.98238 9.24381 0.587563 0.808675 -0.421007 
1129 4 18.1819 -4.90277 15.7303 1.9365 -7.55118 10.801 -0.596053 -0.343331 0.301967 
1420 4 19.2848 -4.28731 12.388 -19.7748 -28.6223 -15.3238 -0.741142 -0.486764 -0.110952 
104 3 0.356166 -3.54795 16.4122 4.03868 1.90199 6.92513 0.538947 -0.086322 1.43888 
1908 3 25.9108 -4.70747 11.9483 0.371502 1.01039 3.31479 -0.263714 1.08834 -0.199681 
527 1 8.32682 -2.73872 13.7083 8.07446 -2.54739 3.51425 -0.0928736 -0.738995 -0.639858 
528 2 11.4909 -3.09826 12.0775 1.4027 4.49121 0.431652 -0.448044 -0.423379 0.329206 
529 3 10.5136 -3.50147 13.3582 -3.77789 0.338166 2.33009 0.676683 0.826217 -0.457979 
530 4 10.5873 -3.46817 13.2665 3.50395 -4.95148 16.1975 -0.402103 -0.178227 0.103706 
531 3 6.03576 -2.06473 13.4266 -4.8906 12.9692 7.00438 0.181876 -0.540738 0.498449 
532 4 5.96185 -2.14393 13.3699 6.53792 22.8766 -16.8371 0.502969 0.228955 -0.548912 
1909 4 25.9362 -4.68643 12.038 22.0573 -18.2623 21.624 -0.431595 -0.614436 -0.333152 
407 4 5.78019 -4.31773 12.1507 12.1556 -5.69784 -9.08234 0.0371243 0.0354223 0.0860246 
1636 1 27.0788 -5.87745 15.8106 4.65626 5.40348 3.25308 0.178386 0.0721373 -0.153447 
912 4 7.90873 -5.2597 13.142 17.165 10.0248 7.94101 -1.01794 0.452749 -0.413097 
623 4 7.31067 -3.28804 16.0889 4.74589 11.8086 -6.27761 0.536643 0.193864 0.214701 
411 1 3.63935 -5.62806 13.2492 -1.09372 1.10113 0.532487 -0.486547 -0.869055 0.267343 
620 1 11.5318 -2.71663 15.5297 -2.61226 0.347908 -1.52154 -0.253833 -1.00872 -0.714008 
1995 3 22.8286 -6.72603 15.5767 -6.3737 -2.40046 -1.75106 -0.622377 0.628809 -0.428311 
105 4 0.442108 -3.47022 16.4696 -5.09677 11.2444 18.8723 0.0293312 0.342532 -0.534522 
1433 4 14.5194 -5.07446 12.9836 -1.01774 -7.97229 -3.4609 0.352191 -0.297549 0.195764 
1917 3 21.3842 -5.50211 12.8408 4.77286 -0.676164 -2.82415 0.959427 -0.590036 0.0303566 
995 3 9.39209 -6.60118 15.6138 -4.34946 7.17205 -2.06275 0.541545 -1.78441 1.75349 
415 3 1.36601 -5.09516 13.3227 -1.38856 -4.99723 -4.20985 -0.941624 0.27966 0.853973 
1029 1 14.7997 -2.7395 13.2139 -1.18834 -0.939991 2.04216 0.151411 1.15055 -0.72864 
1030 2 18.4016 -2.97669 12.3006 -0.214796 -1.17686 -0.367546 0.0590681 1.63411 2.0121 
1031 3 16.9989 -3.29804 12.9965 -8.62758 -0.888029 -3.4601 -0.717323 -0.24476 0.265985 
1032 4 17.106 -3.28551 12.9545 -23.4942 -4.6676 -11.7918 0.623034 0.3719 0.121172 
1033 3 12.5512 -1.96688 12.4789 -2.22585 -0.655724 1.81581 -0.655663 0.0584244 0.758919 
1034 4 12.4638 -2.07357 12.4697 -22.3447 18.9384 -5.02882 -0.0416466 0.0801326 -0.0380064 
615 4 11.3841 -5.13117 15.8543 -15.0279 -33.3446 24.518 -0.297149 -0.265074 -0.260308 
1651 3 21.1883 -3.63085 15.5876 -1.59358 1.18659 8.88159 -1.66629 -0.867972 -1.19844 
93 1 7.20094 -5.88595 15.2894 1.07307 1.94486 0.8028 -0.124923 -0.277559 -0.204695 
1638 3 24.8422 -5.16071 16.3087 -2.09267 -4.90843 1.64521 0.43399 1.37372 -0.792131 
1128 3 18.243 -4.81187 15.6701 -5.8322 1.37492 -2.73476 -0.106648 0.323255 0.631489 
1639 4 24.7748 -5.23633 16.3347 7.77441 -23.4831 -9.78032 -0.0853887 -1.17294 1.17101 
1137 1 18.1375 -2.55221 15.468 -1.42589 -4.18255 -1.44888 0.0595176 -0.361389 -0.159406 
406 3 5.76328 -4.33299 12.1209 0.123907 7.32765 3.24736 0.233866 -1.29731 -0.0762953 
1139 3 13.8495 -3.30341 15.7546 -6.83953 -5.40403 -2.57252 -0.165145 0.129719 -0.401509 
1140 4 13.9078 -3.21912 15.8126 -10.427 -14.2392 -1.43453 0.534354 -0.278244 -0.0898816 
1520 4 16.1752 -6.26456 15.5172 14.6204 12.7301 5.14818 -1.02583 0.272282 -0.36132 
1126 1 20.4746 -5.79322 15.261 -2.06176 0.868104 0.970516 0.280181 -0.546673 -0.68492 
1428 1 16.8324 -5.77993 13.224 3.0384 0.55345 -0.355301 0.421467 -0.258821 -0.310298 
1546 1 21.6347 -2.91022 13.2103 2.85727 -3.74976 3.27748 -0.222602 -0.499396 0.0410819 
1547 2 25.0453 -3.31374 12.511 -2.15899 -0.177299 7.25474 0.766103 -0.845712 0.878938 
1548 3 23.8139 -3.86835 13.4286 2.0022 1.17582 5.85113 0.809061 1.30031 0.120062 
1549 4 23.9258 -3.82702 13.3608 5.1702 -5.4016 26.7349 -0.516049 -0.158431 -0.865714 
1550 3 19.2351 -1.87731 13.2109 2.26198 0.972352 -0.907686 -0.602527 0.844736 0.430821 
1551 4 19.1756 -1.95165 13.1729 9.0014 -5.67346 8.73499 -0.407493 -0.0316176 -0.770445 
904 4 12.3637 -4.42579 11.7455 -10.8836 -34.3507 14.9364 -0.540952 0.580396 -0.10649 
622 3 7.24283 -3.38568 16.0096 0.73244 2.67917 -1.11831 0.117126 -1.10144 -0.0575578 
1652 4 21.1879 -3.55796 15.676 -9.24203 -23.5147 -13.63 0.925065 -0.534429 1.03712 
1432 3 14.6352 -5.04504 13.0363 4.7576 5.2567 2.62623 -0.851893 0.399076 0.100303 
614 3 11.4379 -5.05045 15.7997 -1.08703 -3.94334 -2.28118 1.68195 1.12794 -1.38073 
613 2 10.5786 -6.06127 16.5969 0.672358 -5.64699 -5.91511 0.691655 2.42282 0.333844 
1649 1 24.9416 -3.09241 15.6471 0.917547 -0.910648 1.28216 -0.347686 1.20583 -0.0178881 
416 4 1.23896 -5.12658 13.2883 5.31415 6.87288 4.68867 -0.298875 -0.859463 -0.106696 
1918 4 21.2804 -5.52678 12.7926 3.66214 -6.19823 8.79227 -0.385037 0.821549 -0.0132181 
494 3 2.4642 -6.52512 16.0619 0.612257 5.41658 -1.91144 -0.648405 1.05887 -0.758171 
911 3 7.97739 -5.253 13.2151 -3.64246 6.41823 7.18026 1.60005 0.615786 0.388666 
1519 3 16.058 -6.28815 15.4438 8.45792 -4.58519 -1.58962 0.702569 -0.0949956 0.430965 
1996 4 22.9027 -6.69691 15.6569 0.0887006 -8.39336 3.32185 0.0456259 0.476762 -0.073363 
495 4 2.57305 -6.49776 16.0925 4.39303 16.8215 11.6915 0.147302 -1.34747 0.542844 
94 2 3.96388 -6.21403 16.5375 -2.67697 4.52119 1.01401 0.155219 0.338817 1.22956 
1531 4 18.2287 -7.26063 16.4811 -18.2214 -20.7921 -24.4101 0.422673 1.57331 0.337638 
574 7 7.13667 -1.68871 11.2565 -18.1337 -6.18305 -9.48299 -0.146152 0.55762 0.0746328 
1530 3 18.2625 -7.24413 16.4983 0.499556 -7.55694 -3.47847 -0.555096 -2.04378 0.401144 
907 1 10.2838 -5.99828 13.371 -2.09491 0.213222 -1.25648 0.0488216 0.0185817 -0.00822483 
54 5 -0.75589 -0.3579 11.2962 -4.31294 -7.80958 -3.16861 0.190712 0.197342 -0.562079 
1555 4 24.5771 -2.61521 11.3188 15.3579 23.2608 -6.5566 0.195279 1.11043 -0.0733779 
455 7 4.61832 -0.403053 11.4094 -11.3835 -24.6734 -10.9686 0.937563 1.00887 -0.49812 
1768 5 15.6972 -7.63509 20.8874 -0.862646 -2.31199 2.04003 -0.664034 -0.131451 0.828305 
1134 1 16.712 -3.86148 19.1633 -0.925644 1.28396 3.25013 0.949902 1.13214 0.264864 
1024 7 5.66399 -8.10093 19.9037 -35.1431 -9.64565 17.6444 0.0915909 0.100473 -0.339271 
91 6 8.67822 -5.30072 20.591 1.33763 7.75134 -1.71664 -0.935238 1.42222 0.0147551 
1773 7 25.8814 -6.87912 20.6878 -2.82892 5.58228 -0.800749 -0.922966 -0.129668 -0.616345 
1148 7 11.796 -6.04407 19.3788 -14.4666 -14.928 -9.69308 -0.983844 -1.88827 -0.135871 
1660 7 24.0968 -4.55167 18.7872 1.95393 45.2498 16.7874 0.064479 -0.307665 -0.0305412 
101 1 2.00569 -5.28683 18.9928 1.06677 0.308662 3.21299 0.122614 -0.133181 0.377763 
637 7 6.91053 -4.66871 17.9384 1.89821 1.65552 -4.67642 -0.278559 1.09508 0.309944 
1289 7 12.2348 -6.89086 21.231 -37.1524 6.77857 -3.81719 0.286794 -0.264078 0.45972 
1512 8 21.0083 -9.22313 21.7012 13.8297 -6.28217 16.2644 0.132312 -0.259338 -0.321604 
1125 8 18.8937 -4.7143 20.7723 6.98633 -8.82216 25.1519 -0.0361068 -0.731732 0.0195359 
638 7 5.99381 -6.11316 17.8346 11.629 10.3335 -14.2508 1.326 1.06243 -0.0124506 
1151 7 5.40408 -6.07066 20.937 21.1158 -7.9841 15.9973 0.529461 0.135158 0.831952 
484 6 3.28086 -8.80873 22.0018 -2.67837 -4.76706 -2.11182 -0.51247 -0.112433 0.0232835 
1646 8 19.5526 -6.80159 20.8975 -15.489 11.77 0.611407 0.0227239 -0.445742 1.22686 
100 4 3.98361 -5.4798 17.7977 -15.9805 9.7119 21.4965 -1.10563 0.3483 0.280722 
1133 4 16.8814 -5.55978 17.789 -13.4004 -10.495 -15.7211 0.563864 -0.727061 -1.30329 
1407 5 22.5483 -5.51562 20.9601 5.30783 6.56634 -6.77991 -1.29078 1.03874 -1.98478 
633 5 1.85069 -7.67263 18.4704 3.14101 -5.04723 2.37711 -0.128344 0.292292 0.890085 
262 7 23.8938 -6.21306 19.8254 15.8763 9.36114 3.30962 -1.82987 1.13075 0.00140533 
894 5 -0.336804 -5.63001 18.4081 -5.04955 2.18645 -3.95551 -0.029962 0.90547 -0.087658 
99 3 3.99247 -5.39825 17.9073 4.28352 4.93735 -4.47311 0.340368 0.0493337 -0.0804376 
1152 7 4.57026 -4.88068 21.6148 13.5486 21.499 -9.28 -0.0779817 -0.0548453 0.418058 
1769 7 15.3451 -7.99264 21.8017 17.8553 -15.2801 -7.32907 0.622677 0.252639 -0.35055 
983 1 8.55209 -6.75975 18.8692 -0.253163 2.01792 -2.52199 -0.689443 -0.828847 0.669729 
618 3 9.99998 -5.30899 17.8923 -0.381503 2.32587 3.15135 -1.26494 -1.81188 0.430874 
619 4 10.0289 -5.40768 17.8137 36.0267 8.80273 -14.5318 0.400161 1.2731 -0.0415829 
1637 2 23.8203 -6.27034 16.7687 3.39695 -3.90695 -2.21827 -0.291685 -3.07509 0.373041 
261 5 24.5587 -6.91245 19.6889 0.481939 4.15697 6.04464 3.21722 -0.253683 1.50747 
635 7 1.70678 -7.73975 17.4652 -16.9851 -5.32497 10.5465 -0.200671 -0.280016 -0.187025 
895 7 -0.853633 -4.73476 18.1668 -10.1163 37.9946 -22.6787 0.466881 -1.56561 0.247072 
636 5 6.89148 -5.60112 17.571 -3.51461 0.326524 2.13501 -1.18208 -2.13794 0.121945 
397 5 14.2597 -6.34739 17.8933 -2.55461 6.03057 -0.703787 1.53024 0.160346 -0.532058 
891 5 13.1443 -7.69607 20.0118 -2.67081 2.12419 2.59871 -0.966948 1.87491 0.544115 
896 7 25.9449 -6.35847 18.8661 5.2015 8.64589 17.5445 -0.147053 0.860555 -0.57151 
1657 3 21.1713 -3.32969 18.2861 -4.91554 7.95587 -0.569492 -0.491637 0.0621977 -0.101744 
768 7 4.97504 -4.21642 18.7225 -13.2095 -1.16872 -11.1706 -0.0590865 -0.094679 -0.0940814 
1121 8 18.6474 -9.09485 21.195 8.29189 -17.7473 15.8711 -0.0369022 -1.13627 -1.31521 
1644 1 21.1496 -5.49555 18.9825 -2.19671 4.31433 -0.496364 -0.40458 -0.420955 0.161846 
1150 5 5.37763 -5.49205 21.8119 1.45403 2.16053 -1.38759 -0.313198 -0.509046 -1.47432 
1010 3 11.5771 -7.26339 17.1086 4.3716 4.75549 2.52876 -0.584646 -2.36314 -0.344038 
1645 6 19.482 -6.83049 19.9581 -0.530497 -1.33593 -4.90303 -0.0976962 1.02239 -1.69157 
1642 3 23.0136 -5.85556 18.0832 -0.544891 -2.44191 0.847268 1.00895 0.148288 -1.30286 
1771 5 -0.269416 -6.81792 21.3773 -6.90788 -0.364448 -1.85503 0.723382 1.22259 0.488075 
1643 4 23.0759 -5.89483 17.9667 -15.1914 13.6069 14.4206 -1.04155 0.368634 0.780137 
1132 3 16.8356 -5.53399 17.8749 -3.68621 1.49078 2.9986 0.368446 0.0975548 0.806316 
1650 2 21.5215 -2.69058 16.7948 -4.47848 4.37714 -3.83772 -1.05797 -0.962853 0.333676 
399 7 15.1102 -5.77898 18.0879 2.7339 17.1994 -19.3986 -1.23553 -0.5323 -0.235786 
1409 7 22.8918 -5.78897 21.8697 -7.6259 4.76689 -8.46751 0.948416 0.226583 0.863817 
1770 7 14.7576 -7.68925 20.4571 1.95344 -1.7996 -17.3776 0.307249 0.00290793 -0.465382 
2011 4 24.7694 -7.68556 17.0748 -0.68091 29.1954 13.7717 -0.330846 0.038499 -0.146369 
1628 1 17.5212 -7.8874 18.9913 -2.16761 5.47238 1.13001 0.303214 -0.74111 0.00168363 
634 7 1.26438 -8.3421 18.9911 19.4524 16.4913 5.26811 0.0390388 -0.092961 -0.388226 
398 7 14.7015 -7.16891 17.4229 10.9037 -8.65172 3.75579 -0.661666 0.543964 0.484329 
1147 5 12.2492 -5.18192 19.351 2.95619 -0.692121 0.42519 1.10565 2.10597 -0.397713 
1023 5 5.67494 -7.09785 19.6595 -2.55609 -8.4701 8.31399 0.861385 -0.438631 0.823311 
263 7 24.2923 -7.57741 19.0215 -18.4869 5.4168 50.5882 -0.926859 -1.1113 -1.33608 
1149 7 12.9516 -5.31713 18.5922 19.4699 -1.11229 -5.7249 -0.224421 -0.0340737 0.32415 
1025 7 4.84053 -6.86692 19.1571 11.2273 -5.89687 -5.59136 -0.875949 0.0618156 -0.796764 
1011 4 11.5506 -7.30012 17.0113 -16.0693 40.5268 9.5925 0.000589215 1.01453 -0.12632 
485 8 3.09392 -8.03945 21.4776 -5.00437 0.913184 -4.6091 0.0886558 0.345969 -0.110565 
1634 6 2.55568 -4.55464 21.0837 -1.23491 3.14419 -3.67911 0.144319 0.190854 1.40042 
893 7 13.3408 -7.32864 19.0731 -29.2069 -12.9207 -11.79 0.318864 -0.23521 -0.487094 
1772 7 26.8435 -7.74028 21.6854 -1.66847 23.7811 -11.6435 0.102923 -1.26873 0.443026 
92 8 7.98595 -4.796 21.0285 -0.000104155 -10.8613 23.261 0.911687 -0.926785 -0.56112 
892 7 13.3617 -8.65285 20.1029 -8.14694 4.92937 -13.8736 0.30486 -1.78364 -0.0334763 
1028 7 10.4225 -8.90332 21.5182 -24.5792 -1.28452 4.19789 0.267247 -0.0873595 -0.00148127 
767 7 3.86664 -3.18174 18.115 9.72793 26.2555 -3.29316 -0.162764 -0.340095 -0.0495491 
1658 4 21.1683 -3.2864 18.1955 0.209456 -1.4822 -5.59386 0.903441 -0.558062 -0.203009 
1408 7 23.0025 -4.71764 20.4251 -45.1542 1.26415 -2.62125 0.585024 -0.59692 1.27582 
256 7 24.3953 -8.70745 21.1952 -8.16173 -13.6129 7.77734 -0.174049 -0.0569872 0.124552 
597 8 7.11983 -9.21712 21.4974 -18.7625 -7.06077 -9.83666 0.600322 -0.50257 1.58923 
755 7 11.3115 -8.09571 19.5399 -10.5477 -7.68245 4.86641 0.500958 -0.155057 -0.0542077 
754 5 10.3694 -8.30486 19.8742 5.1521 -1.34171 3.84827 -0.359904 -0.00583643 -0.424648 
2010 3 24.7384 -7.68872 17.1789 -3.56122 3.04481 -1.38646 0.692483 0.573524 -0.454346 
1664 7 9.32691 -6.04744 23.8875 10.2233 9.34225 11.3713 -0.296003 -0.694878 -1.18922 
70 2 6.67309 -10.6796 26.3232 -1.59448 5.28086 5.16427 -3.58149 -0.559464 -1.39747 
71 3 5.21895 -11.2682 26.7882 -10.1837 2.02555 -2.52305 0.769007 -0.0400875 1.35965 
72 4 5.34091 -11.2383 26.7705 -7.55623 5.18382 17.1384 0.252752 -0.136788 -0.352327 
73 3 0.685785 -9.59284 26.74 0.917846 -0.714544 2.93876 0.482487 0.995314 -0.450396 
74 4 0.604006 -9.67182 26.7022 15.4613 8.31647 6.66172 -1.08405 -0.90003 0.0444188 
1026 5 10.7843 -9.49659 22.2958 -2.78982 -2.82663 -0.475288 -0.565594 -0.0616584 -0.35791 
643 7 6.2204 -7.87547 25.3465 -4.99695 25.845 0.603168 -1.18089 -0.616768 0.240937 
1201 8 21.7137 -7.68383 25.1046 -19.6869 -27.1965 -4.37809 1.39832 0.246736 -0.253956 
1101 4 19.3053 -8.86884 23.3848 17.6171 12.997 -13.8805 -0.105857 0.266404 0.748385 
85 3 3.76854 -8.44201 25.0371 3.22023 1.09371 -7.01301 -0.27627 -1.05275 -1.08037 
86 4 3.73797 -8.37179 25.1049 -7.79164 17.584 -14.6379 1.31383 0.738721 -0.11509 
1104 6 16.6849 -10.7779 25.3299 0.568228 1.9355 -1.80982 1.11506 -0.582494 0.889254 
588 4 11.8127 -11.2839 26.9324 5.8887 2.54955 -1.78225 0.965043 0.331692 0.334405 
87 1 1.83371 -8.90743 24.0118 4.02416 -1.5439 0.129989 -0.651419 -0.34217 -0.0137673 
481 1 5.07161 -9.27971 23.335 -1.03983 1.13126 1.38649 0.713644 -0.257855 0.287751 
586 2 13.2151 -10.8085 26.4859 -2.01461 -3.8918 -0.485806 0.104583 -0.0630654 -0.307448 
587 3 11.6855 -11.3219 26.9586 1.4595 3.70232 -8.17024 1.47318 1.26021 -0.195416 
81 3 3.04175 -8.02434 27.5075 -1.62011 0.0981602 -2.37465 0.606453 -0.166409 0.38207 
252 5 17.2995 -5.92054 23.2567 -1.24413 6.05077 3.6115 0.0776144 -0.169399 0.214347 
1662 5 9.12093 -6.68873 23.0721 -0.407408 4.87962 -8.5765 1.51149 -1.07612 3.48271 
596 6 7.23671 -9.55453 22.3969 0.916326 -2.86069 4.88157 -0.344253 0.146658 -1.40016 
594 4 13.1998 -9.96765 25.2351 24.2042 -3.18194 13.5623 -0.188107 -0.491542 0.212427 
595 1 8.6764 -8.95503 24.1616 0.416978 2.43804 0.670372 -0.601152 0.194229 -0.290917 
1621 4 23.3745 -8.01549 27.3694 -21.8707 13.0276 -3.17619 0.0593986 -0.375082 0.465117 
80 2 3.79725 -7.37139 26.2053 1.26311 -3.44708 -2.87204 -2.12778 -0.555086 0.156989 
1604 4 25.5363 -10.9509 27.5117 -26.819 16.5666 8.39002 0.217325 -0.465734 0.00418072 
1613 4 24.4084 -9.12563 23.1091 20.1872 6.25804 -9.07344 0.0644353 -0.47282 -0.336052 
604 3 10.6112 -8.02042 25.0218 -7.59297 3.54841 -5.24697 1.55779 -1.13212 0.532738 
605 4 10.6255 -7.9854 25.1316 0.560417 15.8722 -2.26951 -1.12823 0.958362 -0.72269 
589 3 7.3942 -9.8817 27.5282 -5.28159 7.725 -0.683531 0.649067 -1.19736 0.515274 
1091 3 18.7983 -11.5018 27.4844 0.165939 0.359009 -5.35705 -2.03478 0.717117 0.750339 
1237 1 14.6816 -5.4672 23.0163 -2.39677 -2.26751 -0.526813 0.159338 -0.605927 -0.173142 
1109 4 16.4306 -8.198 27.1397 -20.3123 2.10004 21.6532 -0.201868 -0.529991 0.243581 
1105 8 17.5742 -10.8431 25.6755 -1.37462 -0.093331 20.8023 -0.47262 0.171985 -0.489396 
1108 3 16.3561 -8.2959 27.2163 6.49405 8.07551 7.58329 -0.171366 0.300897 -0.74268 
1090 2 20.0214 -10.915 26.7523 -2.86689 3.2072 5.91538 2.38995 0.0579513 1.17647 
599 2 10.6691 -7.25965 26.4453 1.66258 -1.59439 -1.04533 -0.675816 1.26742 -0.404718 