LAMMPS (3 Mar 2020)

# ------------------ Initialize Simulation -----------------------
clear
units		metal
dimension	3
atom_style	full
boundary p p p
box tilt large

#read_restart restart.2 remap
fix csinfo all property/atom i_CSID
read_data data_lmpo0001.lmp fix csinfo NULL CS-Info
  triclinic box = (0 0 0) to (26.9408 24.8381 27.9874) with tilt (-16.2852 1.40754 -12.4191)
WARNING: Triclinic box skew is large (../domain.cpp:191)
  1 by 5 by 5 MPI processor grid
  reading atoms ...
  2025 atoms
  scanning bonds ...
  2 = max bonds/atom
  scanning angles ...
  6 = max angles/atom
  reading bonds ...
  890 bonds
  reading angles ...
  835 angles
  2 = max # of 1-2 neighbors
  1 = max # of 1-3 neighbors
  1 = max # of 1-4 neighbors
  2 = max # of special neighbors
  special bonds CPU = 0.0966861 secs
  read_data CPU = 0.15481 secs


group ca type 1
245 atoms in group ca
group Si type 2
145 atoms in group Si
group Osicore type 3
470 atoms in group Osicore
group Osishell type 4
470 atoms in group Osishell
group Ow type 5
145 atoms in group Ow
group Ooh type 6
130 atoms in group Ooh
group Hw type 7
290 atoms in group Hw
group Hoh type 8
130 atoms in group Hoh
group Zn type 9
0 atoms in group Zn

set group ca charge 2
  245 settings made for charge
set group Si charge 4
  145 settings made for charge
set group Osicore charge 0.85
  470 settings made for charge
set group Osishell charge -2.85
  470 settings made for charge
set group Ow charge -0.82
  145 settings made for charge
set group Ooh charge -1.4
  130 settings made for charge
set group Hw charge 0.41
  290 settings made for charge
set group Hoh charge 0.4
  130 settings made for charge
set group Zn charge 2.0
  0 settings made for charge

group onlyOH type 1 2 3 4 9 5 7
1765 atoms in group onlyOH
group ohWater type 1 2 3 4 9
1330 atoms in group ohWater

group cores type 3
470 atoms in group cores
group shells type 4
470 atoms in group shells
group noWater type 1 2 3 4
1330 atoms in group noWater

# --------------- Define Interatomic Potential -------------------
pair_style  hybrid/overlay    lj/cut/coul/long 8.5  buck/coul/long 8.5 coul/long 8.5  buck/coul/long/cs  8.5  nm/cut/coul/long 8.5

pair_coeff      1      1     coul/long
pair_coeff      1      2     coul/long
pair_coeff      1      3     coul/long
pair_coeff      1      4     buck/coul/long 2152.3566 0.309227  0.099440
pair_coeff      1      5     buck/coul/long  1286.6000  0.2970  0.0000
pair_coeff      1      6     buck/coul/long 2251.0500  0.2970  0.0000
pair_coeff      1      7     coul/long
pair_coeff      1      8     coul/long
pair_coeff      1      9     coul/long

pair_coeff      2      2     coul/long
pair_coeff      2      3     coul/long
pair_coeff      2      4     buck/coul/long 1283 0.3205 10.66
pair_coeff      2      5     buck/coul/long 1283.556 0.3202 10.66
pair_coeff      2      6     buck/coul/long 983.5 0.3255 10.66
pair_coeff      2      7     coul/long
pair_coeff      2      8     coul/long
pair_coeff      2      9     coul/long

pair_coeff      3      3     buck/coul/long 0 1 0
pair_coeff      3      4     buck/coul/long/cs 0 1 0
pair_coeff      3      5     buck/coul/long 0 1 0
pair_coeff      3      6     buck/coul/long 0 1 0
pair_coeff      3      7     buck/coul/long 0 1 0
pair_coeff      3      8     buck/coul/long 0 1 0
pair_coeff      3      9     buck/coul/long 0 1 0

pair_coeff      4      4     buck/coul/long 22764.3 0.149 27.88
pair_coeff      4      5     buck/coul/long 22764.3 0.149 28.92
pair_coeff      4      6     buck/coul/long 22764.3 0.149 13.94
pair_coeff      4      7     buck/coul/long 512  0.2500  0.0000
pair_coeff      4      8     nm/cut/coul/long 0.0073 2.71 8.5 9 6
pair_coeff      4      9     buck/coul/long 499.6	0.3595	0.0

pair_coeff      5      5     lj/cut/coul/long 0.0067 3.16
pair_coeff      5      6     nm/cut/coul/long 0.0013000 4.63 8.5 9 6
pair_coeff      5      7     coul/long
pair_coeff      5      8     nm/cut/coul/long 0.055 2 8.5 9 6
pair_coeff      5      9     buck/coul/long 204.836 0.3595 0.0

pair_coeff      6      6     buck/coul/long 22764 0.149 6.97
pair_coeff      6      7     coul/long
pair_coeff      6      8     nm/cut/coul/long 0.0073 2.71 8.5 9 6
pair_coeff      6      9     buck/coul/long 370.0 0.3595 0.0

pair_coeff      7      7     coul/long
pair_coeff      7      8     coul/long
pair_coeff      7      9     coul/long

pair_coeff      8      8     coul/long
pair_coeff      8      9     coul/long

pair_coeff      9      9     coul/long

bond_style hybrid  harmonic morse

bond_coeff   1 harmonic   37.5 0
bond_coeff   3 harmonic   22.96 1.0120
bond_coeff   2 morse 7.0525     3.1749     0.942

angle_style harmonic
angle_coeff 1 1.64567 113.24
angle_coeff 2 7.74815 109.47000
angle_coeff 3 7.74815 109.47000
angle_coeff 4 7.74815 109.47000
angle_coeff 5 7.74815 141.5

kspace_style ewald 0.00005
#kspace_style pppm 1e-6
#kspace_modify order 7
# ------------------- Run Minimization,Equilibration and MD ---------------------------
reset_timestep 0

thermo 100
timestep 0.00002

write_restart restart.equil
Ewald initialization ...
  using 12-bit tables for long-range coulomb (../kspace.cpp:332)
  G vector (1/distance) = 0.367786
  estimated absolute RMS force accuracy = 0.000788519
  estimated relative force accuracy = 5.47596e-05
  KSpace vectors: actual max1d max3d = 2548 16 17968
                  kxmax kymax kzmax  = 10 16 16
Neighbor list info ...
  update every 1 steps, delay 10 steps, check yes
  max neighbors/atom: 2000, page size: 100000
  master list distance cutoff = 10.5
  ghost atom cutoff = 10.5
  binsize = 5.25, bins = 9 8 6
  6 neighbor lists, perpetual/occasional/extra = 6 0 0
  (1) pair lj/cut/coul/long, perpetual, skip from (6)
      attributes: half, newton on
      pair build: skip
      stencil: none
      bin: none
  (2) pair buck/coul/long, perpetual, skip from (6)
      attributes: half, newton on
      pair build: skip
      stencil: none
      bin: none
  (3) pair coul/long, perpetual, skip from (6)
      attributes: half, newton on
      pair build: skip
      stencil: none
      bin: none
  (4) pair buck/coul/long/cs, perpetual, skip from (6)
      attributes: half, newton on
      pair build: skip
      stencil: none
      bin: none
  (5) pair nm/cut/coul/long, perpetual, skip from (6)
      attributes: half, newton on
      pair build: skip
      stencil: none
      bin: none
  (6) neighbor class addition, perpetual
      attributes: half, newton on
      pair build: half/bin/newton/tri
      stencil: half/bin/3d/newton/tri
      bin: standard

dump trajc2 all custom 1000000 all.dump id type x y z vx vy vz fx fy fz

fix freeze onlyOH setforce 0.0 0.0 0.0
fix nvt all nvt temp 20.0 20.0 0.0005
run 5000
Ewald initialization ...
  using 12-bit tables for long-range coulomb (../kspace.cpp:332)
  G vector (1/distance) = 0.367786
  estimated absolute RMS force accuracy = 0.000788519
  estimated relative force accuracy = 5.47596e-05
  KSpace vectors: actual max1d max3d = 2548 16 17968
                  kxmax kymax kzmax  = 10 16 16
Neighbor list info ...
  update every 1 steps, delay 10 steps, check yes
  max neighbors/atom: 2000, page size: 100000
  master list distance cutoff = 10.5
  ghost atom cutoff = 10.5
  binsize = 5.25, bins = 9 8 6
  6 neighbor lists, perpetual/occasional/extra = 6 0 0
  (1) pair lj/cut/coul/long, perpetual, skip from (6)
      attributes: half, newton on
      pair build: skip
      stencil: none
      bin: none
  (2) pair buck/coul/long, perpetual, skip from (6)
      attributes: half, newton on
      pair build: skip
      stencil: none
      bin: none
  (3) pair coul/long, perpetual, skip from (6)
      attributes: half, newton on
      pair build: skip
      stencil: none
      bin: none
  (4) pair buck/coul/long/cs, perpetual, skip from (6)
      attributes: half, newton on
      pair build: skip
      stencil: none
      bin: none
  (5) pair nm/cut/coul/long, perpetual, skip from (6)
      attributes: half, newton on
      pair build: skip
      stencil: none
      bin: none
  (6) neighbor class addition, perpetual
      attributes: half, newton on
      pair build: half/bin/newton/tri
      stencil: half/bin/3d/newton/tri
      bin: standard
Per MPI rank memory allocation (min/avg/max) = 39.78 | 39.81 | 39.94 Mbytes
Step Temp E_pair E_mol TotEng Press 
       0            0   -24364.367    215.90231   -24148.464    155192.61 
     100    77.402348   -24418.175    164.98712   -24232.937    171609.86 
     200     50.27073   -24452.466    141.80821   -24297.506    164626.02 
     300    39.408015    -24481.78    131.63213   -24339.838    157817.82 
     400    34.850201     -24509.6    127.76895   -24372.713    156483.02 
     500    32.585234   -24535.833    126.26408   -24401.044    153249.94 
     600    31.267402   -24561.028    125.83672   -24427.011    150716.21 
     700    30.292879   -24584.946    125.56839   -24451.453    148471.27 
     800    29.499571   -24607.806    125.41087   -24474.677    146182.81 
     900    28.833537   -24629.739    125.31909   -24496.877    144028.87 
    1000    28.245725    -24650.83    125.26382   -24518.176    141911.85 
    1100    27.690992   -24671.135    125.25452   -24538.636    139829.43 
    1200    27.132036   -24690.636    125.28484   -24558.253    137803.17 
    1300    26.568047    -24709.29    125.34923    -24576.99    135847.64 
    1400    26.030043   -24727.077    125.42747    -24594.84    133984.21 
    1500     25.53468    -24744.02    125.49914    -24611.84    132217.57 
    1600    25.070264   -24760.156    125.56433   -24628.033     130542.7 
    1700    24.622078   -24775.519    125.63435   -24643.443    128954.16 
    1800    24.190356    -24790.12    125.71514   -24658.076    127452.12 
    1900     23.78389   -24803.975    125.80189    -24671.95    126032.44 
    2000    23.404519     -24817.1    125.88309   -24685.094    124692.22 
    2100    23.049838   -24829.513     125.9476   -24697.535    123431.07 
    2200    22.721971   -24841.236    125.99024   -24709.302    122249.18 
    2300    22.421772   -24852.306     126.0148   -24720.425     121141.1 
    2400    22.145221    -24862.76    126.03077   -24730.936    120096.99 
    2500    21.888665   -24872.631    126.04595   -24740.858    119108.39 
    2600    21.649856   -24881.937    126.06433   -24750.209    118172.66 
    2700    21.425358   -24890.695    126.08758   -24759.003    117287.18 
    2800    21.213919   -24898.907    126.11406   -24767.243    116457.49 
    2900    21.025318   -24906.576    126.13873   -24774.936    115685.94 
    3000    20.878838   -24913.747    126.15861   -24782.126    114958.91 
    3100    20.772575   -24920.506    126.17505   -24788.896    114245.72 
    3200    20.682409   -24926.919    126.18854   -24795.319    113533.37 
    3300    20.603532   -24933.014    126.19871   -24801.425    112837.23 
    3400     20.53216   -24938.811     126.2065   -24807.233    112168.66 
    3500    20.462908   -24944.318     126.2129   -24812.751    111534.28 
    3600    20.399531   -24949.529    126.21611   -24817.976    110947.27 
    3700    20.347374   -24954.455    126.21317   -24822.918     110416.1 
    3800    20.307529   -24959.121    126.20362   -24827.605     109943.4 
    3900    20.278179   -24963.571    126.18869   -24832.077    109524.91 
    4000    20.256379   -24967.842    126.17043   -24836.372    109155.83 
    4100    20.239251   -24971.965    126.15042    -24840.52    108830.76 
    4200    20.224758   -24975.962     126.1292   -24844.542    108545.68 
    4300    20.211751   -24979.847    126.10713   -24848.452    108296.77 
    4400    20.199633   -24983.627    126.08415   -24852.258    108082.36 
    4500    20.188079   -24987.305    126.06005   -24855.963    107901.03 
    4600    20.176948   -24990.884    126.03487    -24859.57    107750.53 
    4700    20.166424   -24994.365    126.00855    -24863.08    107628.99 
    4800    20.156739   -24997.751    125.98111   -24866.496    107533.75 
    4900    20.148044   -25001.045    125.95284   -24869.821    107462.46 
    5000    20.140367   -25004.254    125.92404   -24873.061    107411.11 
Loop time of 15.0953 on 25 procs for 5000 steps with 2025 atoms

Performance: 0.572 ns/day, 41.931 hours/ns, 331.229 timesteps/s
99.7% CPU use with 25 MPI tasks x no OpenMP threads

MPI task timing breakdown:
Section |  min time  |  avg time  |  max time  |%varavg| %total
---------------------------------------------------------------
Pair    | 2.6109     | 3.2508     | 4.269      |  26.0 | 21.54
Bond    | 0.010429   | 0.01658    | 0.026352   |   3.6 |  0.11
Kspace  | 9.5092     | 10.155     | 10.713     |   9.2 | 67.27
Neigh   | 0.0047999  | 0.0048802  | 0.0049475  |   0.1 |  0.03
Comm    | 0.63485    | 1.5365     | 2.1999     |  31.3 | 10.18
Output  | 0.0019902  | 0.0020658  | 0.0023941  |   0.2 |  0.01
Modify  | 0.051202   | 0.088023   | 0.11922    |   5.9 |  0.58
Other   |            | 0.04179    |            |       |  0.28

Nlocal:    81 ave 103 max 64 min
Histogram: 2 3 2 3 5 5 2 0 2 1
Nghost:    4217.04 ave 4454 max 4038 min
Histogram: 2 2 5 3 5 2 2 2 1 1
Neighs:    105.44 ave 273 max 0 min
Histogram: 8 2 1 1 4 2 3 1 0 3

Total # of neighbors = 2636
Ave neighs/atom = 1.30173
Ave special neighs/atom = 1.02222
Neighbor list builds = 4
Dangerous builds = 0
unfix freeze
unfix nvt

fix freeze ohWater setforce 0.0 0.0 0.0
fix nvt all nvt temp 20.0 200.0 0.0005
run 15000
Ewald initialization ...
  using 12-bit tables for long-range coulomb (../kspace.cpp:332)
  G vector (1/distance) = 0.367786
  estimated absolute RMS force accuracy = 0.000788519
  estimated relative force accuracy = 5.47596e-05
  KSpace vectors: actual max1d max3d = 2548 16 17968
                  kxmax kymax kzmax  = 10 16 16
Neighbor list info ...
  update every 1 steps, delay 10 steps, check yes
  max neighbors/atom: 2000, page size: 100000
  master list distance cutoff = 10.5
  ghost atom cutoff = 10.5
  binsize = 5.25, bins = 9 8 6
  6 neighbor lists, perpetual/occasional/extra = 6 0 0
  (1) pair lj/cut/coul/long, perpetual, skip from (6)
      attributes: half, newton on
      pair build: skip
      stencil: none
      bin: none
  (2) pair buck/coul/long, perpetual, skip from (6)
      attributes: half, newton on
      pair build: skip
      stencil: none
      bin: none
  (3) pair coul/long, perpetual, skip from (6)
      attributes: half, newton on
      pair build: skip
      stencil: none
      bin: none
  (4) pair buck/coul/long/cs, perpetual, skip from (6)
      attributes: half, newton on
      pair build: skip
      stencil: none
      bin: none
  (5) pair nm/cut/coul/long, perpetual, skip from (6)
      attributes: half, newton on
      pair build: skip
      stencil: none
      bin: none
  (6) neighbor class addition, perpetual
      attributes: half, newton on
      pair build: half/bin/newton/tri
      stencil: half/bin/3d/newton/tri
      bin: standard
Per MPI rank memory allocation (min/avg/max) = 39.78 | 39.81 | 39.94 Mbytes
Step Temp E_pair E_mol TotEng Press 
    5000    20.140367   -25004.254    125.92404   -24873.061    107411.11 
    5100    71.498826   -25040.061    118.61146   -24902.743    103601.82 
    5200    53.252042   -25082.684    114.09024   -24954.662    97888.423 
    5300     45.51432   -25115.736    109.93388   -24993.895    94838.116 
    5400    41.119544   -25144.202    107.46325   -25025.981    92971.704 
    5500    38.572165   -25170.554    107.36364   -25053.099    91256.838 
    5600    37.185748   -25195.176    108.64573   -25076.801    89491.854 
    5700    36.590505   -25217.898    110.22189   -25098.103    87820.537 
    5800    36.594301   -25238.751    111.39973   -25117.778    86346.303 
    5900    36.973799   -25258.005    111.93289   -25136.399    85048.887 
    6000    37.481357   -25275.988    111.92481   -25154.258    83859.723 
    6100    37.985139   -25292.962    111.65144   -25171.373      82730.1 
    6200    38.459433   -25309.081    111.37729   -25187.642    81640.988 
    6300    38.919867   -25324.396    111.27759   -25202.936    80590.142 
    6400    39.426012   -25338.878    111.41192   -25217.151    79582.237 
    6500    40.036302   -25352.479    111.73205   -25230.272    78621.074 
    6600    40.765561   -25365.171    112.14318   -25242.363    77704.339 
    6700     41.60535   -25376.957    112.55325   -25253.518    76824.478 
    6800    42.541941   -25387.868    112.87882   -25263.859    75976.008 
    6900    43.557702   -25397.964    113.05461   -25273.513    75163.051 
    7000    44.628978   -25407.358    113.06215   -25282.619    74385.153 
    7100    45.728693   -25416.199    112.94982   -25291.285    73631.197 
    7200    46.839638   -25424.623    112.80874    -25299.56    72883.859 
    7300    47.958747   -25432.711    112.71779   -25307.446    72135.059 
    7400    49.091105   -25440.492    112.71309   -25314.935    71393.271 
    7500    50.240496   -25447.985    112.79639   -25322.045    70670.299 
    7600    51.403102   -25455.222    112.95366    -25328.82    69964.378 
    7700    52.569444   -25462.214    113.15678   -25335.303    69267.821 
    7800    53.735871   -25468.928    113.36209   -25341.507    68585.686 
    7900    54.906338   -25475.306     113.5252   -25347.416    67934.114 
    8000    56.083568   -25481.314    113.61909   -25353.023    67317.733 
    8100    57.267593   -25486.963      113.635   -25358.346    66730.729 
    8200    58.458047   -25492.283    113.57264   -25363.416    66173.646 
    8300    59.653402   -25497.331    113.44257   -25368.282     65649.15 
    8400    60.850544   -25502.189    113.27674   -25372.992    65156.909 
    8500    62.045998   -25506.942    113.12276   -25377.586    64687.342 
    8600    63.237669   -25511.636    113.01865   -25382.073    64232.779 
    8700    64.427049   -25516.253    112.96823    -25386.43    63796.057 
    8800    65.619629   -25520.728    112.93446   -25390.626    63391.574 
    8900    66.818738   -25524.999    112.86099   -25394.656    63030.477 
    9000    68.018853   -25529.076    112.72493   -25398.556     62707.19 
    9100    69.222004   -25533.024    112.55567   -25402.359     62398.44 
    9200    70.426109   -25536.907    112.37259    -25406.11    62085.346 
    9300    71.626334   -25540.761    112.17096   -25409.851    61763.755 
    9400    72.822684   -25544.589     111.9512   -25413.586    61441.386 
    9500    74.013735   -25548.382    111.72948   -25417.289    61125.286 
    9600     75.20561    -25552.12    111.53873   -25420.906    60818.118 
    9700    76.402509   -25555.778    111.39686   -25424.393    60528.129 
    9800     77.60551   -25559.349    111.29438   -25427.751    60266.337 
    9900    78.808356   -25562.856    111.21475   -25431.023    60033.415 
   10000    80.007832   -25566.341    111.16716   -25434.242    59815.002 
   10100    81.206631   -25569.824    111.16469   -25437.414    59599.145 
   10200    82.404374   -25573.277    111.18189   -25440.536    59386.861 
   10300    83.602449   -25576.642    111.17057   -25443.599    59193.159 
   10400    84.799001   -25579.874    111.09148   -25446.597    59024.795 
   10500     85.99377   -25582.946    110.93871    -25449.51    58878.881 
   10600    87.188363   -25585.847    110.72875   -25452.307    58747.476 
   10700    88.383869   -25588.557    110.47304    -25454.96    58632.756 
   10800     89.58359   -25591.061    110.17454    -25457.45    58543.526 
   10900    90.788865   -25593.384    109.84456   -25459.787    58484.775 
   11000    91.996564   -25595.617    109.52321   -25462.025    58447.879 
   11100    93.201761   -25597.878    109.26534   -25464.229    58416.155 
   11200    94.400581   -25600.245     109.1037   -25466.444    58376.139 
   11300    95.598025    -25602.71    109.03535   -25468.664    58331.979 
   11400    96.802233   -25605.218    109.01156   -25470.881    58292.941 
   11500     98.00325   -25607.718    108.95775   -25473.121    58255.213 
   11600    99.196492   -25610.185    108.84114   -25475.392    58201.255 
   11700    100.38951   -25612.569    108.65824   -25477.647    58132.147 
   11800    101.58935   -25614.818    108.40102   -25479.839    58071.103 
   11900    102.79773   -25616.954     108.0805    -25481.98    58028.574 
   12000    103.99442   -25619.079    107.74327   -25484.129    57980.771 
   12100    105.18147   -25621.247    107.46255   -25486.267    57915.008 
   12200    106.37823   -25623.424    107.28234   -25488.311    57874.374 
   12300     107.5819   -25625.586    107.19531   -25490.245    57892.648 
   12400    108.78097   -25627.726    107.16126   -25492.105    57976.258 
   12500    109.97731   -25629.823    107.14894   -25493.901    58130.303 
   12600    111.17469   -25631.852    107.14135   -25495.625    58330.169 
   12700     112.3706   -25633.775    107.10512   -25497.272    58555.458 
   12800    113.56909   -25635.564    107.00746   -25498.844    58816.922 
   12900    114.76663   -25637.236    106.84389   -25500.366    59108.819 
   13000    115.96401   -25638.879    106.65195   -25501.888    59411.056 
   13100    117.14392   -25640.631    106.48532   -25503.498    59683.454 
   13200     118.2489   -25642.604    106.38846   -25505.278    59880.249 
   13300     118.6666   -25644.762    106.36893   -25507.347    60021.436 
   13400    123.80117   -25646.971    106.40101   -25508.181    60236.941 
   13500    122.98479    -25649.11    106.46698   -25510.468    60366.766 
   13600    125.06142   -25651.054    106.50509    -25511.83     60552.96 
   13700    124.97374   -25652.752    106.44951   -25513.606    60711.121 
   13800    123.58152   -25654.223    106.25867   -25515.632    60854.903 
   13900    127.04269    -25655.57    105.95371   -25516.379    61074.411 
   14000    126.84254   -25656.914    105.62535   -25518.104     61200.22 
   14100     131.1704   -25658.321    105.36922   -25518.635    61362.547 
   14200    129.65656   -25659.789    105.24658   -25520.622    61429.976 
   14300    134.29334   -25661.339    105.24741   -25520.957    61613.909 
   14400    132.53143   -25662.977     105.4175   -25522.886    61712.099 
   14500    134.21807    -25664.65    105.76069   -25523.775    61851.506 
   14600     135.3774    -25666.14    106.15413   -25524.568    61986.351 
   14700    138.37531   -25667.242    106.35538   -25524.684    62220.249 
   14800    139.76566   -25668.061    106.25819   -25525.237    62462.357 
   14900    140.07642   -25668.795     105.9476     -25526.2    62586.597 
   15000    141.92292   -25669.431     105.5659   -25526.735    62585.889 
   15100    146.56707   -25669.906    105.41095    -25526.15    62565.532 
   15200    144.03456   -25670.275    105.32147   -25527.271    62557.773 
   15300    145.63016     -25670.8    105.36398   -25527.336    62714.463 
   15400    145.53813   -25671.797    105.63335   -25528.087    62716.287 
   15500    145.48186   -25673.297    106.09824   -25529.138    62550.074 
   15600    145.19803   -25675.092    106.68854   -25530.417    62352.139 
   15700      147.466   -25676.941    107.13285   -25531.227    62213.038 
   15800    148.54504    -25678.62     107.4508   -25532.306    62007.324 
   15900    143.76295   -25680.012    107.56983    -25534.83    61579.347 
   16000    152.09333   -25680.982    107.57082    -25533.62    61346.053 
   16100    156.47167   -25681.525    107.28343   -25533.305    61260.161 
   16200    155.77621   -25681.886    106.95684   -25534.174    61239.134 
   16300    160.54113   -25682.406    106.78726   -25533.618    61270.365 
   16400     158.3467    -25683.16    106.82736   -25534.906    61163.554 
   16500    162.08816   -25684.044     106.9081    -25534.73    61248.808 
   16600    159.31896   -25685.237    106.93089   -25536.625    61336.056 
   16700    158.72406    -25686.87    107.01097   -25538.333    61393.889 
   16800    159.94887   -25688.775    107.24126   -25539.687     61318.76 
   16900    159.50993   -25690.507    107.69377   -25541.082    61286.432 
   17000     164.4555   -25691.782    107.55429   -25541.202     61685.22 
   17100    165.14031   -25692.855    107.39232   -25542.258    62074.785 
   17200    165.57792   -25693.924    107.21206   -25543.393    62176.359 
   17300    162.47378   -25694.536    107.18646   -25544.843    62155.215 
   17400    164.51806   -25695.021    106.93464   -25545.045    62392.564 
   17500    169.20176   -25695.646    106.40911    -25544.97    62643.028 
   17600    171.72325   -25696.403    106.17796   -25545.299    62656.524 
   17700    174.08272   -25697.456    106.22554   -25545.686    62563.477 
   17800    174.42713   -25698.688     106.5292   -25546.525    62548.273 
   17900    175.60295   -25699.667    106.76309   -25546.962    62842.437 
   18000    180.13104   -25700.614    106.98158   -25546.506    63074.383 
   18100    178.24695   -25701.768    107.50903   -25547.626    62793.051 
   18200    178.33151   -25702.636     107.9403    -25548.04    62626.776 
   18300    176.95373   -25703.036    108.02595   -25548.715    62768.884 
   18400    175.47848   -25703.248    108.08251   -25549.257    62865.932 
   18500    179.52561   -25703.404    108.20241   -25548.234    62892.416 
   18600    180.45494   -25703.629    108.23625   -25548.182    62772.756 
   18700    180.76307   -25704.003    108.23778   -25548.474     62630.99 
   18800    185.23004   -25704.378     108.0212   -25547.897    62832.353 
   18900    189.01813    -25704.81    107.99552   -25547.363    62989.143 
   19000    190.09476   -25705.218    108.16951   -25547.315    62847.263 
   19100    191.25641   -25705.307    108.12056    -25547.15    62889.653 
   19200    197.50865   -25705.406    107.98457   -25545.749     63192.26 
   19300    194.81247    -25706.07    108.03143   -25547.072    63157.469 
   19400    197.41954   -25707.226    108.16182   -25547.415    62869.911 
   19500    194.18179   -25708.436    108.15347   -25549.481    62311.966 
   19600    200.94364   -25709.405    108.05302    -25548.78    62138.258 
   19700    197.75509    -25710.21    107.94862   -25550.524    62085.302 
   19800     200.7954   -25710.899    108.13158   -25550.234    61955.376 
   19900    204.95182   -25711.122    108.34956   -25549.153    61732.226 
   20000    200.13171   -25710.744    108.23109   -25550.154    61492.471 
Loop time of 44.4651 on 25 procs for 15000 steps with 2025 atoms

Performance: 0.583 ns/day, 41.171 hours/ns, 337.343 timesteps/s
99.7% CPU use with 25 MPI tasks x no OpenMP threads

MPI task timing breakdown:
Section |  min time  |  avg time  |  max time  |%varavg| %total
---------------------------------------------------------------
Pair    | 7.916      | 9.8112     | 12.123     |  37.3 | 22.07
Bond    | 0.033317   | 0.051671   | 0.080334   |   5.5 |  0.12
Kspace  | 27.872     | 30.001     | 31.662     |  16.1 | 67.47
Neigh   | 0.020271   | 0.020452   | 0.02069    |   0.1 |  0.05
Comm    | 1.8548     | 4.2095     | 5.8441     |  47.0 |  9.47
Output  | 0.0055587  | 0.005703   | 0.0066818  |   0.3 |  0.01
Modify  | 0.1393     | 0.24539    | 0.32543    |   9.6 |  0.55
Other   |            | 0.1204     |            |       |  0.27

Nlocal:    81 ave 100 max 60 min
Histogram: 1 1 0 3 6 4 5 3 0 2
Nghost:    4215.08 ave 4413 max 4026 min
Histogram: 3 1 2 2 7 3 2 1 2 2
Neighs:    104.16 ave 268 max 0 min
Histogram: 7 2 2 3 2 2 1 2 2 2

Total # of neighbors = 2604
Ave neighs/atom = 1.28593
Ave special neighs/atom = 1.02222
Neighbor list builds = 18
Dangerous builds = 0
unfix freeze
unfix nvt

neighbor 2.0 bin
comm_modify vel yes

minimize 1e-6 1e-8 10000 100000
WARNING: Using 'neigh_modify every 1 delay 0 check yes' setting during minimization (../min.cpp:190)
Ewald initialization ...
  using 12-bit tables for long-range coulomb (../kspace.cpp:332)
  G vector (1/distance) = 0.367786
  estimated absolute RMS force accuracy = 0.000788519
  estimated relative force accuracy = 5.47596e-05
  KSpace vectors: actual max1d max3d = 2548 16 17968
                  kxmax kymax kzmax  = 10 16 16
Neighbor list info ...
  update every 1 steps, delay 0 steps, check yes
  max neighbors/atom: 2000, page size: 100000
  master list distance cutoff = 10.5
  ghost atom cutoff = 10.5
  binsize = 5.25, bins = 9 8 6
  6 neighbor lists, perpetual/occasional/extra = 6 0 0
  (1) pair lj/cut/coul/long, perpetual, skip from (6)
      attributes: half, newton on
      pair build: skip
      stencil: none
      bin: none
  (2) pair buck/coul/long, perpetual, skip from (6)
      attributes: half, newton on
      pair build: skip
      stencil: none
      bin: none
  (3) pair coul/long, perpetual, skip from (6)
      attributes: half, newton on
      pair build: skip
      stencil: none
      bin: none
  (4) pair buck/coul/long/cs, perpetual, skip from (6)
      attributes: half, newton on
      pair build: skip
      stencil: none
      bin: none
  (5) pair nm/cut/coul/long, perpetual, skip from (6)
      attributes: half, newton on
      pair build: skip
      stencil: none
      bin: none
  (6) neighbor class addition, perpetual
      attributes: half, newton on
      pair build: half/bin/newton/tri
      stencil: half/bin/3d/newton/tri
      bin: standard
Per MPI rank memory allocation (min/avg/max) = 40.91 | 40.96 | 41.11 Mbytes
Step Temp E_pair E_mol TotEng Press 
   20000    200.13171   -25710.744    108.23109   -25550.154    61492.471 
   20088    200.13171   -27416.794    292.53966   -27071.896     14367.68 
Loop time of 0.518521 on 25 procs for 88 steps with 2025 atoms

99.7% CPU use with 25 MPI tasks x no OpenMP threads

Minimization stats:
  Stopping criterion = energy tolerance
  Energy initial, next-to-last, final = 
        -25602.5126591     -27124.2510606      -27124.254672
  Force two-norm initial, final = 702.547 10.3366
  Force max component initial, final = 79.7943 4.15068
  Final line search alpha, max atom move = 0.0272531 0.113119
  Iterations, force evaluations = 88 158

MPI task timing breakdown:
Section |  min time  |  avg time  |  max time  |%varavg| %total
---------------------------------------------------------------
Pair    | 0.1122     | 0.13643    | 0.16175    |   3.7 | 26.31
Bond    | 0.00039373 | 0.00063936 | 0.00099648 |   0.0 |  0.12
Kspace  | 0.29023    | 0.3187     | 0.33575    |   1.8 | 61.46
Neigh   | 0.0043374  | 0.0044201  | 0.004476   |   0.1 |  0.85
Comm    | 0.029857   | 0.051104   | 0.074349   |   4.6 |  9.86
Output  | 0          | 0          | 0          |   0.0 |  0.00
Modify  | 0          | 0          | 0          |   0.0 |  0.00
Other   |            | 0.007233   |            |       |  1.40

Nlocal:    81 ave 95 max 65 min
Histogram: 1 1 2 5 2 4 3 1 3 3
Nghost:    4219.56 ave 4343 max 4113 min
Histogram: 3 2 1 4 5 5 0 0 1 4
Neighs:    104.32 ave 266 max 0 min
Histogram: 7 2 3 1 1 4 1 2 2 2

Total # of neighbors = 2608
Ave neighs/atom = 1.2879
Ave special neighs/atom = 1.02222
Neighbor list builds = 4
Dangerous builds = 0

fix nvt all nvt temp 300 300 0.001
run 10000
Ewald initialization ...
  using 12-bit tables for long-range coulomb (../kspace.cpp:332)
  G vector (1/distance) = 0.367786
  estimated absolute RMS force accuracy = 0.000788519
  estimated relative force accuracy = 5.47596e-05
  KSpace vectors: actual max1d max3d = 2548 16 17968
                  kxmax kymax kzmax  = 10 16 16
Neighbor list info ...
  update every 1 steps, delay 10 steps, check yes
  max neighbors/atom: 2000, page size: 100000
  master list distance cutoff = 10.5
  ghost atom cutoff = 10.5
  binsize = 5.25, bins = 9 8 6
  6 neighbor lists, perpetual/occasional/extra = 6 0 0
  (1) pair lj/cut/coul/long, perpetual, skip from (6)
      attributes: half, newton on
      pair build: skip
      stencil: none
      bin: none
  (2) pair buck/coul/long, perpetual, skip from (6)
      attributes: half, newton on
      pair build: skip
      stencil: none
      bin: none
  (3) pair coul/long, perpetual, skip from (6)
      attributes: half, newton on
      pair build: skip
      stencil: none
      bin: none
  (4) pair buck/coul/long/cs, perpetual, skip from (6)
      attributes: half, newton on
      pair build: skip
      stencil: none
      bin: none
  (5) pair nm/cut/coul/long, perpetual, skip from (6)
      attributes: half, newton on
      pair build: skip
      stencil: none
      bin: none
  (6) neighbor class addition, perpetual
      attributes: half, newton on
      pair build: half/bin/newton/tri
      stencil: half/bin/3d/newton/tri
      bin: standard
Per MPI rank memory allocation (min/avg/max) = 39.79 | 39.85 | 40.02 Mbytes
Step Temp E_pair E_mol TotEng Press 
   20088    200.13171   -27416.794    292.53966   -27071.896     14367.68 
   20100    203.61609   -27416.732    292.53483   -27070.926    14515.231 
   20200    264.95382    -27415.71    293.95957   -27052.433    14973.496 
   20300    309.82662   -27412.696    294.51674   -27037.122     14996.94 
   20400    287.74622   -27407.341    295.44435   -27036.615    16082.295 
   20500    305.51507   -27401.164    294.06375   -27027.171    17749.234 
   20600    294.03195   -27395.326    294.44066    -27023.96    18940.144 
   20700    302.88122   -27390.413    295.25213    -27015.92    19465.172 
   20800    293.13257   -27386.258    296.31286   -27013.255    18553.984 
   20900    302.83765   -27381.968    296.94728   -27005.791    20194.765 
   21000    300.50838   -27378.302    295.98207   -27003.701    21269.676 
   21100    296.91741   -27375.985    297.44319   -27000.862    20848.686 
   21200    301.27093     -27373.9    295.95094    -26999.13    20268.053 
   21300    297.18584   -27371.981    296.30268   -26997.928    18792.909 
   21400    303.52514   -27369.645    295.34375   -26994.892    20167.483 
   21500    285.31677   -27368.157    295.82416   -26997.688    20801.861 
   21600    304.81752   -27368.332    296.26109   -26992.324    19313.114 
   21700    296.05578   -27368.258    295.65567   -26995.147    18604.197 
   21800    307.20093   -27367.952    296.32156   -26991.259    18640.114 
   21900    295.81071   -27367.357    295.64423   -26994.322    18987.392 
   22000    300.23308   -27366.645    296.69279   -26991.404    19875.973 
   22100    301.49059   -27366.918    297.99036   -26990.051    18171.102 
   22200     296.1663   -27366.597    299.34031   -26989.772    17632.149 
   22300    304.57739   -27365.494    297.62199   -26988.188    18515.155 
   22400    297.06435   -27364.376    296.96654   -26989.691    17663.146 
   22500    305.93847   -27363.221    297.15494   -26986.026    18404.385 
   22600    284.75874   -27363.115    297.38986   -26991.226    17355.541 
   22700    305.06327   -27363.057    297.37433   -26985.871    16820.079 
   22800    298.35328   -27362.663    295.55079   -26989.057    18476.224 
   22900    299.50838   -27363.695    296.50197   -26988.834     18134.58 
   23000    295.68092   -27365.187    296.80845   -26991.022    17232.121 
   23100    303.03634   -27365.912    296.97099   -26989.659    17886.509 
   23200    298.77647   -27366.399    297.99859   -26990.234    17200.923 
   23300    297.88507   -27366.341    298.02171   -26990.386    18420.058 
   23400    302.22232   -27366.629    298.01462   -26989.547     19054.13 
   23500    298.90076   -27367.382    298.55982   -26990.623    17414.207 
   23600    311.59827   -27367.052    298.75106    -26986.78    18670.753 
   23700    293.87809   -27366.735    298.12787   -26991.722    18652.491 
   23800    307.56381   -27367.107     297.6928   -26988.948    18516.875 
   23900     292.6267   -27367.586    297.29828    -26993.73    19126.082 
   24000    304.35201   -27368.909    297.39314    -26991.89    17588.693 
   24100    289.07607   -27369.971    297.85248    -26996.49    16913.218 
   24200    304.73816   -27370.416    297.49303   -26993.196    18407.287 
   24300    295.17199   -27371.713    298.41497   -26996.074    16978.593 
   24400    312.82786   -27372.257    297.68867   -26992.726    17131.582 
   24500     297.2223   -27372.692    297.25053   -26997.681    16563.232 
   24600    303.33301   -27373.121     297.6429    -26996.12    15599.087 
   24700     294.5271   -27372.688    296.15038   -26999.483    16850.585 
   24800    303.32206   -27373.683    296.38314   -26997.944    16573.298 
   24900    299.46657   -27375.282     296.8545    -27000.08    15148.276 
   25000    300.01847   -27376.207    295.94413   -27001.771    15834.184 
   25100    299.66126   -27377.586    295.87618   -27003.312    15027.339 
   25200    298.80711   -27378.609    295.51783   -27004.916     14968.69 
   25300     306.1696   -27379.542    296.31248   -27003.129    15733.248 
   25400    296.53156    -27380.97    297.07371   -27006.317     13971.38 
   25500    305.04226   -27381.443    297.29407   -27004.343    14129.068 
   25600    291.80494   -27381.439    297.01789   -27008.079    14424.453 
   25700    301.45205   -27381.959    297.99811   -27005.094    13379.454 
   25800    298.74987   -27382.109    298.28417   -27005.665    13258.851 
   25900    304.51499   -27382.407    298.13744   -27004.601    12780.101 
   26000    293.40654   -27383.274    298.72339   -27007.789    11717.702 
   26100    313.86504   -27383.796    297.38376   -27004.298    12699.701 
   26200    297.33705   -27384.759     297.7027   -27009.267    11789.259 
   26300    305.38271   -27385.438    298.22179   -27007.321    11377.696 
   26400    289.64196    -27385.25    298.07324   -27011.399    11961.135 
   26500       305.58    -27385.55    297.12178   -27008.482    11809.042 
   26600    299.22391   -27385.795    296.51583   -27010.996    11652.593 
   26700    300.10457   -27385.916     295.9182   -27011.484     12145.77 
   26800    299.88277   -27386.635    296.05028   -27012.129    11157.723 
   26900    300.98378   -27386.689    295.62047   -27012.324    11543.143 
   27000    298.19111   -27386.678     294.9004   -27013.765    12132.067 
   27100    300.25121   -27387.279    295.34283   -27013.384    11273.019 
   27200    300.88132   -27387.579    294.21354   -27014.649     11600.25 
   27300    299.54807   -27388.156    294.40191   -27015.386    11426.456 
   27400    300.89763   -27388.959    295.03348   -27015.204    10880.664 
   27500    291.93272   -27389.358    295.09702   -27017.885    11318.216 
   27600    304.10858   -27390.328    295.57195   -27015.195    10817.883 
   27700    296.10176   -27391.491      296.178   -27017.846    10041.628 
   27800     312.8404   -27392.191     296.4484   -27013.896    10896.202 
   27900    296.99061   -27392.918    296.41513   -27018.803    9980.4795 
   28000     305.3291   -27392.948    296.73025   -27016.336    10222.979 
   28100    290.53323   -27392.437    297.04572   -27019.381    10644.602 
   28200    300.06124   -27392.392    297.79588   -27016.094    10132.566 
   28300    301.18791   -27391.875    297.25811    -27015.82    10547.921 
   28400    290.71625   -27391.299     296.7557   -27018.485    10827.336 
   28500      305.633   -27391.237    297.08879   -27014.188    10608.438 
   28600    294.11584   -27390.805    296.42121   -27017.436    10990.916 
   28700    313.75747       -27391    296.69615   -27012.218    11080.776 
   28800    297.29629    -27391.75     297.2226   -27016.748    10427.497 
   28900    301.60593   -27392.107    296.63763   -27016.563     11266.03 
   29000    300.66504   -27392.759    296.14714   -27017.951    10553.464 
   29100    299.66072   -27393.183     296.0955    -27018.69    10206.698 
   29200    298.93495   -27393.348     296.7752   -27018.365    10557.466 
   29300    295.24439   -27393.393    296.94696   -27019.204    9679.6491 
   29400    301.56031   -27392.714    296.90056   -27016.919    9925.6083 
   29500    296.60959     -27392.1    296.89506   -27017.605    9905.5811 
   29600    304.92022   -27391.733    297.52611   -27014.433    8975.0589 
   29700    289.38134   -27391.133    297.62527   -27017.799     8986.684 
   29800    305.48207   -27390.969    297.96639   -27013.081     9271.131 
   29900    295.16975    -27391.54     299.2529   -27015.064    8556.3925 
   30000     310.6237   -27392.414     299.5032   -27011.645     9151.641 
   30088    298.14169   -27393.063    300.00945   -27015.053    8302.4449 
Loop time of 29.211 on 25 procs for 10000 steps with 2025 atoms

Performance: 0.592 ns/day, 40.571 hours/ns, 342.337 timesteps/s
99.7% CPU use with 25 MPI tasks x no OpenMP threads

MPI task timing breakdown:
Section |  min time  |  avg time  |  max time  |%varavg| %total
---------------------------------------------------------------
Pair    | 5.689      | 6.5807     | 8.0972     |  23.5 | 22.53
Bond    | 0.021894   | 0.035158   | 0.050449   |   4.2 |  0.12
Kspace  | 17.56      | 19.446     | 20.283     |  15.2 | 66.57
Neigh   | 0.01742    | 0.017642   | 0.017791   |   0.1 |  0.06
Comm    | 1.8085     | 2.8933     | 4.3886     |  36.1 |  9.90
Output  | 0.0038739  | 0.0039427  | 0.0046332  |   0.2 |  0.01
Modify  | 0.11125    | 0.15106    | 0.18359    |   5.6 |  0.52
Other   |            | 0.08358    |            |       |  0.29

Nlocal:    81 ave 94 max 67 min
Histogram: 4 1 2 0 2 6 2 5 0 3
Nghost:    4203.16 ave 4324 max 4105 min
Histogram: 2 3 4 3 2 4 1 1 4 1
Neighs:    104.12 ave 264 max 0 min
Histogram: 7 1 3 0 5 1 3 2 1 2

Total # of neighbors = 2603
Ave neighs/atom = 1.28543
Ave special neighs/atom = 1.02222
Neighbor list builds = 16
Dangerous builds = 0
unfix nvt

thermo 1000


compute CStemp all temp/cs cores shells
compute thermo_press_lmp all pressure thermo_temp # press for correct kinetic scalar

thermo_style custom step etotal pe ke temp press              epair evdwl ecoul elong ebond fnorm fmax vol enthalpy cellalpha cellbeta cellgamma cella cellb cellc

# output via chunk method
compute prop all property/atom i_CSID
compute cs_chunk all chunk/atom c_prop
compute csPE all pe/atom bond
compute csKE all ke/atom
fix PEoutput all ave/chunk 10000 1 10000 cs_chunk c_csPE file csPotential.txt
compute cstherm all temp/chunk cs_chunk temp internal com yes cdof 3.0
fix ave_chunk all ave/time 10000 1 10000 c_cstherm file chunk.dump mode vector
fix ke_chunk all ave/chunk 10000 1 10000 cs_chunk c_csKE file csKinetic.txt

# 2 fmsec timestep

timestep 0.0002

fix freeze ohWater setforce 0.0 0.0 0.0
fix nvt all nvt temp 20.0 200.0 0.0005
run 50000
Ewald initialization ...
  using 12-bit tables for long-range coulomb (../kspace.cpp:332)
  G vector (1/distance) = 0.367786
  estimated absolute RMS force accuracy = 0.000788519
  estimated relative force accuracy = 5.47596e-05
  KSpace vectors: actual max1d max3d = 2548 16 17968
                  kxmax kymax kzmax  = 10 16 16
Neighbor list info ...
  update every 1 steps, delay 10 steps, check yes
  max neighbors/atom: 2000, page size: 100000
  master list distance cutoff = 10.5
  ghost atom cutoff = 10.5
  binsize = 5.25, bins = 9 8 6
  6 neighbor lists, perpetual/occasional/extra = 6 0 0
  (1) pair lj/cut/coul/long, perpetual, skip from (6)
      attributes: half, newton on
      pair build: skip
      stencil: none
      bin: none
  (2) pair buck/coul/long, perpetual, skip from (6)
      attributes: half, newton on
      pair build: skip
      stencil: none
      bin: none
  (3) pair coul/long, perpetual, skip from (6)
      attributes: half, newton on
      pair build: skip
      stencil: none
      bin: none
  (4) pair buck/coul/long/cs, perpetual, skip from (6)
      attributes: half, newton on
      pair build: skip
      stencil: none
      bin: none
  (5) pair nm/cut/coul/long, perpetual, skip from (6)
      attributes: half, newton on
      pair build: skip
      stencil: none
      bin: none
  (6) neighbor class addition, perpetual
      attributes: half, newton on
      pair build: half/bin/newton/tri
      stencil: half/bin/3d/newton/tri
      bin: standard
Per MPI rank memory allocation (min/avg/max) = 41.17 | 41.23 | 41.4 Mbytes
Step TotEng PotEng KinEng Temp Press E_pair E_vdwl E_coul E_long E_bond Fnorm Fmax Volume Enthalpy CellAlpha CellBeta CellGamma Cella Cellb Cellc 
   30088   -27015.053   -27093.053    78.000584    298.14169    8302.4449   -27393.063    6893.3884   -10779.099   -23507.353    277.92868    25.132273    4.0213915    18727.966   -26918.005      111.347       87.368      123.251      26.9408      29.7008      30.6514 
   31000   -27124.144   -27129.348    5.2044997    19.893163    2280.9641   -27426.349    6887.7137   -10804.121   -23509.942    276.58405    7.9093854    2.3786153    18727.966   -27097.481      111.347       87.368      123.251      26.9408      29.7008      30.6514 
   32000   -27121.053    -27129.55    8.4975649    32.480248    2966.6014   -27426.575    6890.9204    -10807.37   -23510.125    276.59333    7.6306674    2.4715517    18727.966   -27086.376      111.347       87.368      123.251      26.9408      29.7008      30.6514 
   33000   -27122.291    -27128.82    6.5286244    24.954366    1856.8652   -27426.235    6885.2585    -10802.29   -23509.204    276.72697     9.228985    2.1827836    18727.966   -27100.586      111.347       87.368      123.251      26.9408      29.7008      30.6514 
   34000   -27118.685   -27128.792    10.106581     38.63039    2686.4331   -27426.199    6891.2087   -10807.717   -23509.691    276.82786     9.121342    2.3330536    18727.966   -27087.283      111.347       87.368      123.251      26.9408      29.7008      30.6514 
   35000   -27118.784   -27128.037    9.2538055    35.370828    2384.8887   -27425.351    6888.3793   -10804.439   -23509.291    276.80911    10.661994    2.2096037    18727.966   -27090.907      111.347       87.368      123.251      26.9408      29.7008      30.6514 
   36000   -27116.808   -27126.804    9.9965314    38.209749     2778.863    -27424.18    6889.9323   -10804.472    -23509.64    276.61156    10.637301    2.0243395    18727.966   -27084.326      111.347       87.368      123.251      26.9408      29.7008      30.6514 
   37000   -27113.829   -27127.283    13.454357      51.4266    2307.3218   -27424.777    6886.4778    -10801.92   -23509.336    276.76295    10.936032    2.8301616    18727.966   -27086.858      111.347       87.368      123.251      26.9408      29.7008      30.6514 
   38000   -27115.949   -27126.122     10.17277    38.883385    1233.7707   -27423.538    6882.7316   -10797.308   -23508.961    276.84094    12.014135     2.180176    18727.966   -27101.528      111.347       87.368      123.251      26.9408      29.7008      30.6514 
   39000   -27108.338   -27125.153    16.815371    64.273404    2851.1961   -27422.797    6887.3831   -10800.688   -23509.493    276.62378    13.066615    2.3003212    18727.966    -27075.01      111.347       87.368      123.251      26.9408      29.7008      30.6514 
   40000   -27112.327   -27124.547    12.220093     46.70887    2174.7395   -27422.008    6887.3315   -10799.713   -23509.627     276.8945    14.116986    3.2074535    18727.966   -27086.907      111.347       87.368      123.251      26.9408      29.7008      30.6514 
   41000   -27107.704   -27123.774    16.069809    61.423641    1901.1182   -27422.031    6884.0904   -10796.853   -23509.268    276.82193    13.333003    1.6609907    18727.966   -27085.482      111.347       87.368      123.251      26.9408      29.7008      30.6514 
   42000   -27105.643   -27123.066    17.423501     66.59786     2633.311   -27420.743    6886.9687   -10797.775   -23509.937    276.73721    14.575041    2.8494352    18727.966   -27074.862      111.347       87.368      123.251      26.9408      29.7008      30.6514 
   43000   -27107.169   -27121.461    14.292069    54.628587    2654.8043   -27420.031    6886.8219   -10797.711   -23509.142     277.0212    14.920899    2.5932141    18727.966   -27076.137      111.347       87.368      123.251      26.9408      29.7008      30.6514 
   44000   -27098.818   -27121.734    22.915459    87.589777    3208.1605   -27420.195    6887.2178   -10798.024   -23509.388    276.80802    15.033034    2.3126404    18727.966   -27061.318      111.347       87.368      123.251      26.9408      29.7008      30.6514 
   45000   -27104.941   -27120.495    15.554233    59.452958    2814.2897   -27419.772     6888.901   -10799.981   -23508.692    277.18506    17.005973    3.2715017    18727.966   -27072.045      111.347       87.368      123.251      26.9408      29.7008      30.6514 
   46000   -27098.215   -27119.778    21.563106    82.420676    2604.7205   -27418.065    6885.9365   -10795.235   -23508.766    276.78993    15.483362    2.0153039    18727.966   -27067.768      111.347       87.368      123.251      26.9408      29.7008      30.6514 
   47000   -27097.211   -27119.403     22.19268    84.827099     3121.675   -27418.382    6888.5835   -10797.629   -23509.337    277.00724    16.268416    2.2079303    18727.966   -27060.721      111.347       87.368      123.251      26.9408      29.7008      30.6514 
   48000   -27100.435    -27118.31    17.874642    68.322258    1917.3776   -27417.421      6881.43   -10789.991    -23508.86    277.18184    17.743003    3.8860075    18727.966   -27078.023      111.347       87.368      123.251      26.9408      29.7008      30.6514 
   49000   -27087.167   -27116.313    29.145528    111.40297     3276.579   -27416.078    6886.3797   -10794.304   -23508.154    277.18058    17.766151    3.1893985    18727.966   -27048.867      111.347       87.368      123.251      26.9408      29.7008      30.6514 
   50000   -27097.965    -27117.81    19.845109    75.853973    2913.1981   -27418.051    6887.6841   -10796.907   -23508.828    277.46082    19.643562    3.6937245    18727.966   -27063.913      111.347       87.368      123.251      26.9408      29.7008      30.6514 
   51000   -27091.675   -27116.158    24.482543    93.579641    4098.8339   -27416.264    6893.2121   -10800.658   -23508.819    277.03443    19.638488    3.4414632    18727.966   -27043.764      111.347       87.368      123.251      26.9408      29.7008      30.6514 
   52000   -27085.412   -27115.711    30.299496    115.81378    3508.1374   -27416.696    6886.7168   -10794.407   -23509.006    277.30457    19.755053    3.1517535    18727.966   -27044.405      111.347       87.368      123.251      26.9408      29.7008      30.6514 
   53000   -27093.695   -27114.261    20.565132    78.606119    2601.3064   -27413.756    6883.1916   -10789.463   -23507.485    277.13746    20.566482    3.9623189    18727.966   -27063.289      111.347       87.368      123.251      26.9408      29.7008      30.6514 
   54000   -27078.747   -27111.978    33.230696    127.01771    3238.4162   -27412.501    6885.6222   -10789.371   -23508.752    277.27415    20.496844     3.509067    18727.966   -27040.893      111.347       87.368      123.251      26.9408      29.7008      30.6514 
   55000   -27084.626   -27111.977    27.351399    104.54527    4360.4983   -27413.251    6894.4617   -10798.499   -23509.214    277.62568    20.228806    2.9588878    18727.966   -27033.655      111.347       87.368      123.251      26.9408      29.7008      30.6514 
   56000   -27085.063   -27109.304    24.241214    92.657211    4088.7952   -27410.273    6889.5653   -10792.637   -23507.201    276.99181    23.084451    3.6232739    18727.966   -27037.269      111.347       87.368      123.251      26.9408      29.7008      30.6514 
   57000   -27069.605   -27108.913    39.308082    150.24731    4550.9437   -27409.514    6887.8871   -10789.647   -23507.755    277.40812    21.640997    3.1563531    18727.966   -27016.409      111.347       87.368      123.251      26.9408      29.7008      30.6514 
   58000   -27082.701   -27109.907    27.206541    103.99158    3389.6783   -27412.449     6887.512   -10791.337   -23508.623     277.7102    24.209309    4.3357845    18727.966   -27043.079      111.347       87.368      123.251      26.9408      29.7008      30.6514 
   59000   -27078.756   -27107.502    28.746009    109.87589    5458.1673   -27410.758    6893.4283   -10795.155    -23509.03    277.24552    23.917373    4.2170383    18727.966   -27014.955      111.347       87.368      123.251      26.9408      29.7008      30.6514 
   60000   -27066.227   -27108.874    42.646619     163.0082    4341.8497   -27412.222     6891.296    -10794.41   -23509.108    277.93777    22.563194     3.244156    18727.966   -27015.475      111.347       87.368      123.251      26.9408      29.7008      30.6514 
   61000   -27080.503    -27108.12    27.617257    105.56146    3465.8345   -27409.036    6886.8182   -10787.279   -23508.575     277.6936    23.945371    4.9259833    18727.966    -27039.99      111.347       87.368      123.251      26.9408      29.7008      30.6514 
   62000   -27071.733   -27105.471    33.737843    128.95618    3921.1829   -27406.263    6890.0267   -10788.119   -23508.172    277.91347    24.142256    3.5602381    18727.966   -27025.898      111.347       87.368      123.251      26.9408      29.7008      30.6514 
   63000   -27057.466   -27103.117     45.65023    174.48891    4492.2744   -27405.963    6887.6159   -10785.292   -23508.287     277.7002    23.485613    3.6326564    18727.966   -27004.956      111.347       87.368      123.251      26.9408      29.7008      30.6514 
   64000    -27070.27   -27100.269    29.998562    114.66353    3313.7271   -27402.478     6888.845   -10784.221   -23507.102    278.18877     27.13977    4.2654171    18727.966   -27031.536      111.347       87.368      123.251      26.9408      29.7008      30.6514 
   65000   -27068.859   -27102.433    33.573564    128.32826     4553.862    -27403.14    6887.2812   -10783.088   -23507.334    277.82527    25.140877    3.6406577    18727.966   -27015.629      111.347       87.368      123.251      26.9408      29.7008      30.6514 
   66000   -27049.685   -27100.171    50.485615     192.9712    4582.3437   -27402.041     6885.883   -10779.723     -23508.2    278.27175    25.288166    2.9308565    18727.966   -26996.122      111.347       87.368      123.251      26.9408      29.7008      30.6514 
   67000   -27062.261   -27100.339    38.078165     145.5462    3733.1591   -27402.048    6882.1328    -10777.14    -23507.04    278.12202    27.034092    3.1453158    18727.966   -27018.623      111.347       87.368      123.251      26.9408      29.7008      30.6514 
   68000   -27068.614   -27099.541    30.927784    118.21529    4768.7994   -27402.019    6894.7501   -10789.504   -23507.265    278.67118    29.315943    4.0297092    18727.966   -27012.871      111.347       87.368      123.251      26.9408      29.7008      30.6514 
   69000    -27052.71   -27097.221    44.511339    170.13572    5159.0326   -27401.136    6891.8758   -10785.531   -23507.481    278.45868    28.131089    3.2911305    18727.966   -26992.405      111.347       87.368      123.251      26.9408      29.7008      30.6514 
   70000   -27043.273   -27097.534    54.260663    207.40057    6043.1302   -27399.997    6887.0737   -10779.656   -23507.414    278.06424    26.025055     2.702758    18727.966   -26972.635      111.347       87.368      123.251      26.9408      29.7008      30.6514 
   71000   -27058.434   -27096.439    38.005221    145.26738    4870.3481   -27400.176    6884.3846   -10777.396   -23507.165    278.77698    30.146434    4.8443016    18727.966   -27001.504      111.347       87.368      123.251      26.9408      29.7008      30.6514 
   72000   -27060.977   -27094.955    33.977344    129.87163    4801.7894   -27398.002     6890.897   -10781.445   -23507.454    278.81345    30.603677    4.5485362    18727.966   -27004.849      111.347       87.368      123.251      26.9408      29.7008      30.6514 
   73000   -27045.048   -27092.737    47.689012    182.28175    4878.5307   -27397.388     6882.145   -10773.378   -23506.156    279.17534    31.634042    5.0737563    18727.966   -26988.023      111.347       87.368      123.251      26.9408      29.7008      30.6514 
   74000   -27032.364   -27093.167    60.802881    232.40689    5226.5203   -27397.191    6884.8084   -10774.874   -23507.125     279.0858    30.309755    3.7905386    18727.966    -26971.27      111.347       87.368      123.251      26.9408      29.7008      30.6514 
   75000   -27040.867   -27091.813     50.94661    194.73326    4574.4716   -27395.784     6880.808     -10769.1   -23507.492    278.74574    31.502201    3.6272089    18727.966   -26987.395      111.347       87.368      123.251      26.9408      29.7008      30.6514 
   76000   -27053.746   -27091.697    37.951174     145.0608    4499.7023   -27396.746    6888.4445   -10778.665   -23506.525    279.73651    34.276504    3.6451877    18727.966   -27001.149      111.347       87.368      123.251      26.9408      29.7008      30.6514 
   77000   -27049.175   -27087.685    38.510955    147.20045    3346.0059   -27391.365    6884.5137   -10770.114   -23505.764     279.8572     33.39076      4.83169    18727.966   -27010.063      111.347       87.368      123.251      26.9408      29.7008      30.6514 
   78000    -27035.07   -27087.741    52.670993    201.32438    5615.0585   -27393.043    6892.3796   -10778.991   -23506.432    279.90472    32.592882     4.826336    18727.966   -26969.435      111.347       87.368      123.251      26.9408      29.7008      30.6514 
   79000   -27020.603   -27087.689     67.08584    256.42226    6514.4462   -27393.518     6895.036   -10781.381   -23507.173    280.19782    32.806167    3.3699182    18727.966   -26944.455      111.347       87.368      123.251      26.9408      29.7008      30.6514 
   80000   -27025.766   -27086.179    60.412559    230.91497    6810.1056   -27390.967    6892.0094   -10776.267    -23506.71    279.65484     32.68078    3.8683062    18727.966   -26946.162      111.347       87.368      123.251      26.9408      29.7008      30.6514 
   80088    -27028.96   -27088.763    59.803474    228.58686    7275.0293   -27394.106    6893.3642   -10779.871   -23507.599    279.77815    32.316295    3.3279514    18727.966   -26943.922      111.347       87.368      123.251      26.9408      29.7008      30.6514 
Loop time of 145.836 on 25 procs for 50000 steps with 2025 atoms

Performance: 5.924 ns/day, 4.051 hours/ns, 342.850 timesteps/s
99.7% CPU use with 25 MPI tasks x no OpenMP threads

MPI task timing breakdown:
Section |  min time  |  avg time  |  max time  |%varavg| %total
---------------------------------------------------------------
Pair    | 29.189     | 32.869     | 38.476     |  40.2 | 22.54
Bond    | 0.10992    | 0.17534    | 0.25112    |   9.6 |  0.12
Kspace  | 88.567     | 96.87      | 102.5      |  35.8 | 66.42
Neigh   | 0.50724    | 0.51059    | 0.51422    |   0.3 |  0.35
Comm    | 8.4415     | 14.295     | 21.16      |  84.4 |  9.80
Output  | 0.004131   | 0.0049337  | 0.005016   |   0.2 |  0.00
Modify  | 0.53425    | 0.70811    | 0.88352    |  10.6 |  0.49
Other   |            | 0.4036     |            |       |  0.28

Nlocal:    81 ave 95 max 65 min
Histogram: 3 3 0 1 3 1 5 3 3 3
Nghost:    4202.32 ave 4324 max 4115 min
Histogram: 2 5 1 6 4 2 0 1 3 1
Neighs:    105.28 ave 259 max 0 min
Histogram: 6 2 2 2 1 4 5 0 2 1

Total # of neighbors = 2632
Ave neighs/atom = 1.29975
Ave special neighs/atom = 1.02222
Neighbor list builds = 462
Dangerous builds = 0
unfix freeze
unfix nvt


thermo_modify temp CStemp press thermo_press_lmp

velocity all create 300 134 dist gaussian mom yes rot no bias yes temp CStemp
Ewald initialization ...
  using 12-bit tables for long-range coulomb (../kspace.cpp:332)
  G vector (1/distance) = 0.367786
  estimated absolute RMS force accuracy = 0.000788519
  estimated relative force accuracy = 5.47596e-05
  KSpace vectors: actual max1d max3d = 2548 16 17968
                  kxmax kymax kzmax  = 10 16 16
Neighbor list info ...
  update every 1 steps, delay 10 steps, check yes
  max neighbors/atom: 2000, page size: 100000
  master list distance cutoff = 10.5
  ghost atom cutoff = 10.5
  binsize = 5.25, bins = 9 8 6
  6 neighbor lists, perpetual/occasional/extra = 6 0 0
  (1) pair lj/cut/coul/long, perpetual, skip from (6)
      attributes: half, newton on
      pair build: skip
      stencil: none
      bin: none
  (2) pair buck/coul/long, perpetual, skip from (6)
      attributes: half, newton on
      pair build: skip
      stencil: none
      bin: none
  (3) pair coul/long, perpetual, skip from (6)
      attributes: half, newton on
      pair build: skip
      stencil: none
      bin: none
  (4) pair buck/coul/long/cs, perpetual, skip from (6)
      attributes: half, newton on
      pair build: skip
      stencil: none
      bin: none
  (5) pair nm/cut/coul/long, perpetual, skip from (6)
      attributes: half, newton on
      pair build: skip
      stencil: none
      bin: none
  (6) neighbor class addition, perpetual
      attributes: half, newton on
      pair build: half/bin/newton/tri
      stencil: half/bin/3d/newton/tri
      bin: standard
velocity all scale 300 temp CStemp

# thermostating using the core/shell decoupling

fix thermoberendsen all temp/berendsen 300 300 0.4
fix nve all nve
fix_modify thermoberendsen temp CStemp
run 10000
Ewald initialization ...
  using 12-bit tables for long-range coulomb (../kspace.cpp:332)
  G vector (1/distance) = 0.367786
  estimated absolute RMS force accuracy = 0.000788519
  estimated relative force accuracy = 5.47596e-05
  KSpace vectors: actual max1d max3d = 2548 16 17968
                  kxmax kymax kzmax  = 10 16 16
Neighbor list info ...
  update every 1 steps, delay 10 steps, check yes
  max neighbors/atom: 2000, page size: 100000
  master list distance cutoff = 10.5
  ghost atom cutoff = 10.5
  binsize = 5.25, bins = 9 8 6
  6 neighbor lists, perpetual/occasional/extra = 6 0 0
  (1) pair lj/cut/coul/long, perpetual, skip from (6)
      attributes: half, newton on
      pair build: skip
      stencil: none
      bin: none
  (2) pair buck/coul/long, perpetual, skip from (6)
      attributes: half, newton on
      pair build: skip
      stencil: none
      bin: none
  (3) pair coul/long, perpetual, skip from (6)
      attributes: half, newton on
      pair build: skip
      stencil: none
      bin: none
  (4) pair buck/coul/long/cs, perpetual, skip from (6)
      attributes: half, newton on
      pair build: skip
      stencil: none
      bin: none
  (5) pair nm/cut/coul/long, perpetual, skip from (6)
      attributes: half, newton on
      pair build: skip
      stencil: none
      bin: none
  (6) neighbor class addition, perpetual
      attributes: half, newton on
      pair build: half/bin/newton/tri
      stencil: half/bin/3d/newton/tri
      bin: standard
Per MPI rank memory allocation (min/avg/max) = 42.13 | 42.2 | 42.35 Mbytes
Step TotEng PotEng KinEng Temp Press E_pair E_vdwl E_coul E_long E_bond Fnorm Fmax Volume Enthalpy CellAlpha CellBeta CellGamma Cella Cellb Cellc 
   80088     -27028.5   -27088.763    60.263086    300.00999    7301.3373   -27394.106    6893.3642   -10779.871   -23507.599    279.77815    54.729805     4.793839    18727.966   -26943.154      111.347       87.368      123.251      26.9408      29.7008      30.6514 
   81000    -27037.92    -27118.24    80.320479    399.86246    3529.0004   -27421.788    6875.8227   -10786.581    -23511.03    278.14284    58.526089    4.2496439    18727.966   -26996.669      111.347       87.368      123.251      26.9408      29.7008      30.6514 
   82000    -27047.55   -27123.561    76.011094    378.40889    425.88531   -27428.174    6847.7747   -10765.144   -23510.804    279.86909    57.127934    3.6832064    18727.966   -27042.572      111.347       87.368      123.251      26.9408      29.7008      30.6514 
   83000   -27055.363   -27129.919    74.555979    371.16484    1499.6567   -27431.659    6857.4137   -10777.861   -23511.211    276.45612    58.279483    4.7291919    18727.966   -27037.834      111.347       87.368      123.251      26.9408      29.7008      30.6514 
   84000   -27062.249   -27135.898    73.649597    366.65256    605.21764   -27433.305    6851.4965   -10772.904   -23511.898    272.12898    57.931124    3.6947728    18727.966   -27055.174      111.347       87.368      123.251      26.9408      29.7008      30.6514 
   85000    -27067.96   -27139.243    71.282584    354.86877    1646.9833   -27435.963    6864.3336   -10788.089   -23512.208    272.90393    57.519098    3.9229039    18727.966   -27048.709      111.347       87.368      123.251      26.9408      29.7008      30.6514 
   86000   -27073.387   -27142.765    69.378089    345.38755   -15.308049   -27436.568    6821.9488   -10745.593   -23512.924    270.81134    57.334993    4.1725687    18727.966   -27073.566      111.347       87.368      123.251      26.9408      29.7008      30.6514 
   87000   -27078.026   -27144.577    66.551031     331.3135     123.1107   -27441.249    6833.6769   -10761.977   -23512.948    271.68173    57.706836    4.6865051    18727.966   -27076.587      111.347       87.368      123.251      26.9408      29.7008      30.6514 
   88000   -27081.882   -27150.708     68.82654    342.64175   -2423.7951    -27448.14    6823.7618   -10758.778   -23513.123    274.39496    57.600099    4.6549294    18727.966   -27110.214      111.347       87.368      123.251      26.9408      29.7008      30.6514 
   89000   -27085.237   -27151.739    66.501653    331.06768    -1276.148   -27446.559    6836.5974   -10769.592   -23513.565    268.74752    56.775778     4.570076    18727.966   -27100.154      111.347       87.368      123.251      26.9408      29.7008      30.6514 
   90000   -27087.735    -27152.86    65.124988    324.21418   -3559.8395    -27452.94    6808.7349   -10748.411   -23513.264    275.96609    58.624808    4.7008701    18727.966   -27129.347      111.347       87.368      123.251      26.9408      29.7008      30.6514 
   90088   -27088.041   -27153.646    65.605005    326.60387   -1351.4341   -27446.935    6840.3266   -10774.026   -23513.235    269.81055    57.189163    4.4591019    18727.966   -27103.838      111.347       87.368      123.251      26.9408      29.7008      30.6514 
Loop time of 29.3348 on 25 procs for 10000 steps with 2025 atoms

Performance: 5.891 ns/day, 4.074 hours/ns, 340.892 timesteps/s
99.7% CPU use with 25 MPI tasks x no OpenMP threads

MPI task timing breakdown:
Section |  min time  |  avg time  |  max time  |%varavg| %total
---------------------------------------------------------------
Pair    | 5.8962     | 6.5905     | 7.3642     |  15.3 | 22.47
Bond    | 0.022295   | 0.035135   | 0.054388   |   4.5 |  0.12
Kspace  | 17.868     | 19.38      | 20.26      |  15.5 | 66.06
Neigh   | 0.10568    | 0.10624    | 0.10693    |   0.1 |  0.36
Comm    | 1.7453     | 2.9871     | 4.1823     |  38.3 | 10.18
Output  | 0.00089288 | 0.00090952 | 0.00099565 |   0.0 |  0.00
Modify  | 0.11407    | 0.156      | 0.19727    |   5.7 |  0.53
Other   |            | 0.07933    |            |       |  0.27

Nlocal:    81 ave 100 max 62 min
Histogram: 2 3 1 3 2 2 5 5 1 1
Nghost:    4197.28 ave 4271 max 4125 min
Histogram: 2 2 3 3 3 3 3 1 2 3
Neighs:    104.24 ave 286 max 0 min
Histogram: 6 2 1 5 4 3 1 2 0 1

Total # of neighbors = 2606
Ave neighs/atom = 1.28691
Ave special neighs/atom = 1.02222
Neighbor list builds = 95
Dangerous builds = 0
unfix thermoberendsen
unfix nve

fix 10 Ow ave/histo 100 1000 500000 0 30 30  z mode vector file owdensity
fix 11 Hw ave/histo 100 1000 500000 0 30 30  z mode vector file hwdensity
fix 12 ca ave/histo 100 1000 500000 0 30 30  z mode vector file cadensity
fix 13 ca ave/histo 100 1000 500000 0 30 30  y mode vector file cadensity-Yaxis

fix nvt all nvt temp 300 300 0.02
fix_modify nvt temp CStemp
run 1000000
Ewald initialization ...
  using 12-bit tables for long-range coulomb (../kspace.cpp:332)
  G vector (1/distance) = 0.367786
  estimated absolute RMS force accuracy = 0.000788519
  estimated relative force accuracy = 5.47596e-05
  KSpace vectors: actual max1d max3d = 2548 16 17968
                  kxmax kymax kzmax  = 10 16 16
Neighbor list info ...
  update every 1 steps, delay 10 steps, check yes
  max neighbors/atom: 2000, page size: 100000
  master list distance cutoff = 10.5
  ghost atom cutoff = 10.5
  binsize = 5.25, bins = 9 8 6
  6 neighbor lists, perpetual/occasional/extra = 6 0 0
  (1) pair lj/cut/coul/long, perpetual, skip from (6)
      attributes: half, newton on
      pair build: skip
      stencil: none
      bin: none
  (2) pair buck/coul/long, perpetual, skip from (6)
      attributes: half, newton on
      pair build: skip
      stencil: none
      bin: none
  (3) pair coul/long, perpetual, skip from (6)
      attributes: half, newton on
      pair build: skip
      stencil: none
      bin: none
  (4) pair buck/coul/long/cs, perpetual, skip from (6)
      attributes: half, newton on
      pair build: skip
      stencil: none
      bin: none
  (5) pair nm/cut/coul/long, perpetual, skip from (6)
      attributes: half, newton on
      pair build: skip
      stencil: none
      bin: none
  (6) neighbor class addition, perpetual
      attributes: half, newton on
      pair build: half/bin/newton/tri
      stencil: half/bin/3d/newton/tri
      bin: standard
Per MPI rank memory allocation (min/avg/max) = 42.13 | 42.22 | 42.37 Mbytes
Step TotEng PotEng KinEng Temp Press E_pair E_vdwl E_coul E_long E_bond Fnorm Fmax Volume Enthalpy CellAlpha CellBeta CellGamma Cella Cellb Cellc 
   90088   -27088.041   -27153.646    65.604606    326.60188   -1351.4341   -27446.935    6840.3266   -10774.026   -23513.235    269.81055    57.189163    4.4591019    18727.966   -27103.838      111.347       87.368      123.251      26.9408      29.7008      30.6514 
   91000   -27099.521   -27158.754    59.232967    294.88171   -3843.7579   -27455.209    6809.0308    -10750.34     -23513.9    273.35581     55.81489     3.888602    18727.966   -27144.451      111.347       87.368      123.251      26.9408      29.7008      30.6514 
   92000   -27098.275   -27158.769    60.493823    301.15867   -1978.9276    -27452.82    6834.5027   -10773.498   -23513.825     270.3629    54.248299     4.298196    18727.966   -27121.407      111.347       87.368      123.251      26.9408      29.7008      30.6514 
   93000    -27097.38   -27158.022    60.642504    301.89886   -3863.8786   -27454.116    6814.2441   -10754.061   -23514.299    272.55506    55.516469    4.0039696    18727.966   -27142.545      111.347       87.368      123.251      26.9408      29.7008      30.6514 
   94000   -27097.279   -27159.017    61.737744    307.35133   -2259.7368    -27451.05    6824.4165   -10761.761   -23513.706    270.62272    55.178214    3.8937301    18727.966   -27123.694      111.347       87.368      123.251      26.9408      29.7008      30.6514 
   95000   -27097.451   -27159.814    62.362353    310.46085   -2112.3402   -27450.613    6829.0964    -10766.02   -23513.689    269.37979    55.152435    4.7380301    18727.966   -27122.142      111.347       87.368      123.251      26.9408      29.7008      30.6514 
   96000   -27098.225   -27158.857    60.631987     301.8465   -2161.2815   -27451.827    6820.2949    -10757.99   -23514.131    270.49294    55.665429    4.7461191    18727.966   -27123.489      111.347       87.368      123.251      26.9408      29.7008      30.6514 
   97000   -27099.363   -27159.361    59.998123    298.69091   -6158.0477   -27460.149    6786.3911   -10732.235   -23514.305    276.51473    55.597211    4.6646661    18727.966   -27171.345      111.347       87.368      123.251      26.9408      29.7008      30.6514 
   98000   -27099.526   -27158.997    59.470418    296.06382   -3817.9794   -27455.894    6809.7833   -10751.184   -23514.493    274.31584     56.97749    5.6316088    18727.966   -27144.155      111.347       87.368      123.251      26.9408      29.7008      30.6514 
   99000   -27098.826   -27158.693    59.866486    298.03558    -1959.008   -27453.835    6833.6545   -10774.217   -23513.273    270.58419    56.651362    5.0225649    18727.966   -27121.725      111.347       87.368      123.251      26.9408      29.7008      30.6514 
  100000   -27096.635   -27158.591    61.955347    308.43463    1057.0632   -27454.926     6848.249   -10788.805   -23514.369    272.86263    57.157513    4.8731017    18727.966   -27084.279      111.347       87.368      123.251      26.9408      29.7008      30.6514 
  101000   -27097.877   -27160.046    62.168871    309.49763   -1550.7029   -27456.622      6824.67   -10766.089   -23515.203    272.37544    58.013428     5.048354    18727.966   -27116.004      111.347       87.368      123.251      26.9408      29.7008      30.6514 
  102000   -27097.704   -27161.208    63.503903    316.14387     -4154.06   -27452.934    6801.7962   -10740.907   -23513.823    270.03071    56.581196    4.8674325    18727.966   -27146.261      111.347       87.368      123.251      26.9408      29.7008      30.6514 
  103000   -27099.501   -27160.133    60.632395    301.84853   -3232.1055   -27454.827    6807.4529    -10747.96   -23514.319    271.71376    56.294232    4.4490259    18727.966   -27137.281      111.347       87.368      123.251      26.9408      29.7008      30.6514 
  104000    -27101.54   -27160.207    58.666476    292.06152   -975.59265   -27454.822    6844.9267   -10785.114   -23514.634    271.62237    57.912879    4.6231829    18727.966   -27112.944      111.347       87.368      123.251      26.9408      29.7008      30.6514 
  105000   -27100.359   -27162.086    61.727353     307.2996   -3582.9507   -27459.276    6805.1759   -10750.511   -23513.941    274.44543    57.924911    5.6736736    18727.966    -27142.24      111.347       87.368      123.251      26.9408      29.7008      30.6514 
  106000   -27100.761   -27162.691    61.930393    308.31041    115.63887   -27455.945    6852.8501   -10793.989   -23514.806    269.83665    57.291552     4.008248    18727.966   -27099.409      111.347       87.368      123.251      26.9408      29.7008      30.6514 
  107000   -27103.361   -27162.649    59.288447    295.15791   -1676.8761   -27456.111    6826.8814   -10768.687   -23514.305    271.58191    56.088747    4.5072675    18727.966   -27122.962      111.347       87.368      123.251      26.9408      29.7008      30.6514 
  108000     -27101.6   -27162.275    60.674764    302.05946    -2535.983   -27456.134    6811.1515   -10752.452   -23514.833    270.26405    55.079514    4.1290462    18727.966   -27131.243      111.347       87.368      123.251      26.9408      29.7008      30.6514 
  109000   -27099.866   -27161.363    61.496796    306.15182   -1474.5633   -27454.354    6839.4408   -10779.639   -23514.156    269.73726    56.563159    4.9178843    18727.966   -27117.102      111.347       87.368      123.251      26.9408      29.7008      30.6514 
  110000   -27104.295   -27164.031    59.735943    297.38569   -246.98992   -27457.169    6851.1613   -10793.853   -23514.478    269.94811    55.282712    4.6341887    18727.966   -27107.182      111.347       87.368      123.251      26.9408      29.7008      30.6514 
  111000   -27104.815   -27164.146     59.33184    295.37393   -4218.9906    -27461.73    6797.1129   -10745.322    -23513.52    276.81286    57.000759    4.3915719    18727.966   -27154.131      111.347       87.368      123.251      26.9408      29.7008      30.6514 
  112000   -27104.519    -27165.13    60.611092    301.74248   -964.98558   -27456.644    6845.6909   -10788.066   -23514.269    269.23081    54.763126    4.2787242    18727.966   -27115.799      111.347       87.368      123.251      26.9408      29.7008      30.6514 
  113000   -27105.028   -27165.039    60.010631    298.75318   -1898.5548   -27459.556     6835.852   -10781.112   -23514.296    272.40559    55.493528    4.3132454    18727.966   -27127.221      111.347       87.368      123.251      26.9408      29.7008      30.6514 
  114000   -27103.124    -27163.05    59.926565    298.33467   -3290.5595   -27459.047    6831.8284   -10776.833   -23514.043    271.72163     57.06794    5.6513702    18727.966   -27141.587      111.347       87.368      123.251      26.9408      29.7008      30.6514 
  115000    -27104.77   -27163.074     58.30416    290.25779   -3261.1918    -27462.73    6830.7046   -10779.522   -23513.912     275.7095    57.274905    4.6050676    18727.966    -27142.89      111.347       87.368      123.251      26.9408      29.7008      30.6514 
  116000   -27106.843   -27165.135    58.292385    290.19917   -3131.7058   -27461.153    6828.6575   -10775.465   -23514.345    272.97583    56.962113    4.2962606    18727.966    -27143.45      111.347       87.368      123.251      26.9408      29.7008      30.6514 
  117000   -27106.027    -27166.77    60.743021    302.39927   -2509.8946   -27466.963     6821.563   -10774.499   -23514.027    274.61679    56.051294    4.6168416    18727.966   -27135.365      111.347       87.368      123.251      26.9408      29.7008      30.6514 
  118000   -27107.303   -27165.278    57.974773    288.61799   -3388.1735   -27461.792    6827.7627   -10776.287   -23513.268    274.18124    56.854816    4.2254632    18727.966   -27146.908      111.347       87.368      123.251      26.9408      29.7008      30.6514 
  119000    -27105.08   -27165.827    60.747012    302.41914   -1053.7729   -27459.679      6834.54    -10780.55   -23513.669    270.65287    55.680088    4.5616391    18727.966   -27117.398      111.347       87.368      123.251      26.9408      29.7008      30.6514 
  120000   -27105.852   -27165.712    59.860784    298.00719    -3678.713   -27461.327    6809.3863   -10756.352   -23514.362    273.64721    56.320889    4.7855027    18727.966   -27148.852      111.347       87.368      123.251      26.9408      29.7008      30.6514 
  121000   -27105.979   -27165.513    59.533314    296.37694   -808.85085   -27459.633    6837.4053    -10782.45   -23514.588    271.62698    56.198819    4.1054925    18727.966   -27115.434      111.347       87.368      123.251      26.9408      29.7008      30.6514 
  122000   -27110.035    -27169.39    59.354696    295.48772    -953.7111   -27459.262    6836.5587   -10781.219   -23514.602    268.55475    54.181253    3.6106127    18727.966   -27121.183      111.347       87.368      123.251      26.9408      29.7008      30.6514 
  123000   -27106.223     -27165.5    59.277753    295.10467   -2743.3139   -27461.801    6827.9994   -10775.661   -23514.139    272.93823    56.056881     4.177709    18727.966   -27138.289      111.347       87.368      123.251      26.9408      29.7008      30.6514 
  124000   -27109.129   -27167.495    58.366143    290.56637   -3370.4701     -27464.5    6808.4779   -10758.291   -23514.687    274.54871    55.967547     3.778253    18727.966   -27148.526      111.347       87.368      123.251      26.9408      29.7008      30.6514 
  125000   -27108.353   -27169.501    61.147984    304.41531   -4715.8128   -27467.317    6797.8997   -10750.698   -23514.519    275.42649     56.51011    3.9150851    18727.966   -27163.477      111.347       87.368      123.251      26.9408      29.7008      30.6514 
  126000   -27108.663    -27166.17      57.5071    286.28976    -1054.761   -27462.014    6839.1927   -10787.179   -23514.028    272.84883    55.640863    4.7719428    18727.966   -27120.992      111.347       87.368      123.251      26.9408      29.7008      30.6514 
  127000   -27106.525    -27167.17    60.645203     301.9123   -1720.5227   -27460.667     6838.175   -10783.797   -23515.045    271.34038     57.40384    4.2710546    18727.966   -27126.636      111.347       87.368      123.251      26.9408      29.7008      30.6514 
[...]
 5024000   -27146.765   -27206.269    59.503827    296.23014   -12.231924   -27503.569    6858.0168    -10831.18   -23530.406    277.54072    64.974279     4.927689     18333.79   -27146.905    112.13032    86.371871    124.40221    26.826476    30.238068    30.154027 
 5025000   -27148.084   -27206.725    58.640979    291.93459   -653.55987   -27502.856    6866.5528   -10839.452   -23529.957    275.40835    63.615158    4.8690735    18328.841    -27155.56    112.46968    86.206917    124.36393    26.877856    30.188345    30.199791 
 5026000    -27143.47   -27204.941    61.471171    306.02424    1033.8036   -27504.878    6858.8207   -10832.997   -23530.702    277.02485    63.221729    4.1742691    18300.682   -27131.661    112.14067    86.374412    124.54071    26.940282    30.120177    30.151206 
 5027000   -27145.061   -27203.059    57.997161    288.72945   -1415.8504   -27503.245    6855.7324    -10828.98   -23529.997    279.02805    65.565628    4.0808535    18290.379   -27161.225     112.1782     86.07471    124.42004    26.875891    30.197301    30.048597 
 5028000   -27145.341   -27205.108    59.767531    297.54295   -211.81632   -27505.688    6855.2575   -10831.103   -23529.842    279.85527    63.867524    4.7918864    18240.643   -27147.752    112.11137     86.37552    124.34781     26.92316    30.127489    29.975147 
 5029000   -27148.358   -27207.265    58.906818    293.25803    3248.7886   -27504.328    6885.6373   -10859.691   -23530.274    275.69498    62.721117    4.0343197    18217.101   -27111.419    112.33904     86.36779     124.4693    26.869511    30.118898    30.122019 
 5030000   -27145.817   -27206.494    60.676593    302.06857   -621.07056   -27503.383     6840.625   -10814.058    -23529.95    275.51874    64.351468    5.3724183    18350.652   -27152.931    112.18861    86.194946    124.27999    26.922346    30.128968    30.125039 
 5031000   -27143.045   -27204.593    61.548246    306.40795     474.5321   -27501.041    6869.6703   -10840.546   -23530.165    274.79985    66.509765    6.3679266     18344.96   -27137.612    112.36308    86.305408    124.25442    26.890526    30.166479    30.170094 
 5032000   -27143.492   -27205.507    62.015627    308.73473    -522.9372   -27502.688    6840.3094   -10812.966   -23530.031     275.0663    64.263397    5.5871582    18356.366   -27149.483    112.40938    86.069202    124.37828    26.903204    30.168267    30.205553 
 5033000   -27150.259   -27207.735    57.476557    286.13771   -1214.4888   -27503.409    6847.8684   -10821.516   -23529.761      274.819    63.321763    4.4844782    18282.863   -27164.117    112.28832     86.16773    124.45155    26.831837    30.156615    30.184536 
 5034000   -27146.811   -27209.111    62.300209    310.15148    946.59931   -27507.248     6866.612   -10843.435   -23530.425    276.96461    63.382982    3.9291384    18273.625   -27136.014    112.57518    85.999967    124.30045    26.867148    30.184725    30.100791 
 5035000   -27144.727   -27207.126    62.398703    310.64181   -2296.6564   -27509.013    6838.0276   -10816.479   -23530.561    278.87445    64.117744    5.0637065    18394.593   -27171.095     112.4471    86.090584    124.39612    26.902991     30.25613    30.202455 
 5036000   -27150.444   -27208.508    58.063753    289.06097    2565.5578   -27501.973    6883.6272   -10855.066   -23530.534    272.94329    63.167416    4.8818218    18236.014   -27121.243    112.37689     86.18296    124.47398    26.863031    30.187889    30.078845 
 5037000   -27147.914   -27205.984    58.070659    289.09535    1323.4394   -27504.647    6874.2267   -10848.911   -23529.962    277.80219    63.511598    4.5875661    18339.095   -27132.765    112.26984    86.150702     124.4038    26.929574    30.156951    30.139369 
 5038000   -27146.678   -27206.523    59.845106    297.92914    1043.9613   -27503.905    6870.2809   -10844.042   -23530.144    276.50738      62.8366    5.0947371    18293.751   -27134.758    112.49931    86.171773    124.55589    26.975011    30.239397    30.066975 
 5039000   -27146.127   -27206.885    60.758458    302.47612   -424.26317    -27500.09    6854.9589    -10824.56   -23530.489    273.37046    63.121365    4.1231706     18364.38    -27150.99    112.11517    86.485451    124.38342    26.959373     30.13904    30.157828 
 5040000    -27144.62   -27206.018    61.398084    305.66039   -1639.5452   -27501.874    6855.6824   -10827.571   -23529.986    274.85946    64.242557    5.5665297    18296.697   -27163.343    112.36947    86.302608    124.23501    26.852963    30.208022    30.084816 
 5041000   -27144.096   -27206.257    62.160885    309.45787    -1096.477   -27505.262    6851.9774   -10826.893   -23530.347    278.12692     64.63559    4.8043509    18336.598   -27156.645    112.26725     86.04079    124.59071     26.95255     30.19672    30.132178 
 5042000   -27144.158   -27204.617    60.459487    300.98774   -3666.5657   -27502.212    6845.6125   -10817.851   -23529.974    277.49419    63.498339    3.9616901    18426.924   -27186.327    112.08976    86.201885    124.49229    26.935087    30.225956    30.199267 
 5043000   -27147.671   -27205.421    57.750042    287.49921    971.37825   -27502.054    6865.8081   -10837.658   -23530.203    274.96374    64.422004    4.5002983    18352.239   -27136.544    112.18424    86.537563    124.16239    26.830652    30.148873     30.20803 
 5044000   -27146.591   -27206.591    60.000026    298.70039    2675.6621   -27501.278    6866.0129   -10836.938   -23530.353    274.44664    63.577054    5.1525555    18307.782   -27116.016    112.15969    86.308635    124.44927    26.907187    30.203621    30.074669 
 5045000   -27143.014   -27202.833    59.819381    297.80107   -116.79482   -27501.142     6854.206   -10825.372   -23529.976    276.41309    65.226376    4.8939496     18347.96   -27144.352    112.31629    86.357031    124.31957     26.85638     30.17874    30.221645 
 5046000   -27144.852   -27206.658    61.805856    307.69042   -91.492835   -27504.168    6863.4715   -10837.913   -23529.727    277.17882    63.983819    4.5958167    18328.472   -27145.899    112.21095    86.504026    124.43107    26.866513    30.229336    30.163825 
 5047000   -27144.812   -27204.335    59.522668    296.32394   -441.39032   -27501.052     6855.006   -10825.494   -23530.564    274.38773    65.668694    5.2225931    18309.704   -27149.856    112.37892    86.272432    124.49982    26.881818     30.23757    30.153757 
 5048000   -27145.907   -27205.966     60.05899    298.99393   -260.33622   -27503.566    6860.9473   -10834.423   -23530.091      275.836    64.218059    4.7106306    18324.277   -27148.885    112.40311    86.298408    124.19246    26.844256    30.143434    30.196241 
 5049000   -27147.174   -27207.058    59.884057    298.12305    2178.3199   -27501.732    6876.0494   -10847.711   -23530.071    273.65978    63.708727    4.8604593    18361.882   -27122.209    112.15513    86.320094    124.54826    26.916602    30.215034     30.18341 
 5050000   -27146.515   -27205.766    59.250035    294.96668    2381.5901   -27500.722    6873.1202   -10843.629   -23530.214    273.60165    63.967219    4.5103788    18291.689   -27119.325    112.16674    86.397206    124.40641    26.892519    30.162721    30.101946 
 5051000   -27147.859   -27207.414    59.555489    296.48733    -417.1615   -27504.127    6854.9434    -10828.91    -23530.16    276.00085    62.942086    4.0324279    18300.499   -27152.624    111.99791    86.602391    124.44283    26.959382    30.173442    30.025382 
 5052000   -27144.329   -27206.217    61.887234    308.09555    2412.3301   -27506.388    6883.1513   -10859.055   -23530.485    279.05077    65.425595    4.6323603    18279.372   -27116.807    112.15138    86.286895     124.4257    26.841658     30.23585    30.053928 
 5053000   -27145.437   -27205.685    60.247845    299.93411     1355.594   -27504.436    6868.6125    -10843.01   -23530.038    277.45339    64.423821    4.3574499    18302.314   -27129.952    112.58241    86.089825    124.40869    26.929318    30.251281    30.071899 
 5054000   -27142.943   -27205.353    62.410015    310.69813    393.85097   -27503.533    6853.5232   -10826.992   -23530.064    276.73507       63.567    4.0862349    18303.548   -27138.443    112.21991    86.218299     124.4738    26.899803    30.200455     30.09463 
 5055000   -27142.974   -27204.007     61.03262    303.84099    1272.1233   -27500.094    6864.7923   -10834.166    -23530.72    274.98504     65.44917    5.0722596    18287.339   -27128.454    111.82732    86.504954    124.41854    26.920494    30.215492    29.931674 
 5056000    -27144.56   -27205.393    60.832785    302.84614   -1948.8898   -27504.746    6840.8064   -10815.915   -23529.637    278.88395    64.415437    5.1501245    18356.507   -27166.889    112.12611    86.190087    124.42035     26.91049    30.171301    30.144937 
 5057000   -27143.813   -27205.375    61.561653     306.4747     826.5174   -27502.772    6852.3963   -10825.278    -23529.89    275.18622     63.09016    3.9125695    18353.191   -27134.345    112.17341    86.801551    124.15149    26.907776    30.028212    30.274245 
 5058000   -27144.247   -27204.736    60.488665      301.133    624.60187   -27503.757     6862.417    -10835.97   -23530.204     277.9052    64.526631    4.2629868    18299.193   -27137.114    112.25809    86.102925    124.51244    26.953977    30.231572    30.007585 
 5059000   -27143.881   -27206.161     62.28012    310.05147   -1229.4398   -27505.996    6841.1893   -10816.893   -23530.292    276.84806    64.090491    5.1369145    18304.783   -27157.928    112.03322    86.491717    124.19233    26.909298    30.125301    30.026898 
 5060000   -27146.026   -27206.926    60.900044    303.18098    3086.1609   -27502.825    6883.8563   -10856.367   -23530.314    274.68833    64.543109     4.642943    18260.202   -27110.852    112.45262    86.144328    124.44708     26.84762    30.170682    30.159174 
 5061000   -27145.721   -27206.413    60.691597    302.14326    92.002832   -27506.079    6859.0321   -10834.657   -23530.453     277.5389    64.137788    4.6360475    18315.252    -27144.67    112.43564    86.404424    124.37361    26.946357    30.136334    30.174515 
 5062000   -27149.099   -27208.526    59.426656    295.84596    911.18365   -27502.437    6870.0561   -10841.864   -23530.629    272.89586    63.208581    4.6607985    18317.304   -27138.682    112.01668    86.258242    124.37627    26.877788    30.162408    30.084967 
 5063000   -27144.161   -27205.145    60.984812    303.60298   -1145.7118   -27504.392    6841.8213   -10816.057   -23530.155     277.9708     64.14794     4.336734    18355.676   -27157.287    111.96792    86.538802    124.39937    26.907289    30.212859    30.098779 
 5064000   -27146.859   -27205.709    58.849711    292.97373    2420.1594   -27503.704    6892.5355   -10865.868   -23530.372    277.28879    63.453353    3.7518445    18252.014   -27119.289    112.22653    86.369732    124.20156    26.852282     30.12342    30.049504 
 5065000   -27146.231   -27207.643    61.412595    305.73263   -1333.2432    -27503.43    6831.1746    -10804.69   -23529.914    275.42061    63.042933    5.8825266    18335.823   -27161.489    112.28799    86.325702    124.43036    26.934612    30.211588    30.114671 
 5066000   -27148.374   -27207.745    59.371528    295.57151   -745.65532   -27505.095    6846.7871   -10821.623    -23530.26    277.48118    64.305684      3.98982    18294.596   -27156.888    112.34819    86.359342     124.5705    26.914437    30.282882    30.080229 
 5067000   -27146.177   -27205.941    59.764635    297.52853    988.02499   -27498.677    6867.7739    -10835.74    -23530.71    271.52674    64.264633    4.9232456    18354.116   -27134.858    112.00722    86.319123     124.3828    26.900406     30.22583    30.065139 
 5068000   -27145.566    -27205.71    60.143482    299.41456    1439.4545   -27501.599    6866.7244   -10837.642   -23530.682    273.24991    63.774138    4.4525609    18233.751   -27129.184    111.95321    86.604593    124.54538    26.949839    30.069157    30.060364 
 5069000    -27142.46   -27205.351    62.890256    313.08893   -2323.4167   -27507.544    6837.2966   -10815.044   -23529.796    281.05826    65.969936    4.3518102     18319.12   -27169.026    112.03729    86.241293    124.45279    26.900128    30.147604    30.113261 
 5070000   -27144.195   -27207.704    63.508976    316.16912     395.1869   -27500.736    6867.9004   -10838.603   -23530.033    273.24449    64.111991    4.1297523    18323.182   -27139.675    112.02268    86.298893    124.28041    26.877279    30.122357    30.102726 
 5071000   -27143.956   -27204.968    61.012043    303.73855   -333.98602    -27504.12    6851.7831   -10825.354    -23530.55    278.35326    64.616482    4.7160984    18301.345   -27147.771    112.41879    86.369869    124.21014    26.805997    30.231465    30.135623 
 5072000   -27144.787   -27204.869    60.081403    299.10551   -1851.9459   -27501.423    6856.6304   -10827.821   -23530.233    274.83879    65.050529    4.0768323    18362.162   -27166.012    112.16947     86.57998    124.30762     26.93754    30.141538    30.173983 
 5073000   -27146.052   -27205.633    59.580534    296.61202    2232.3433   -27501.223    6868.9267   -10839.613   -23530.537    273.50868    64.563119    4.4602188    18288.022   -27120.571    112.19427    86.499381    124.34244    26.855351    30.189405    30.106782 
 5074000   -27145.035   -27204.744    59.709118    297.25215   -3444.4206    -27505.13     6852.525   -10827.862   -23529.793     278.9857    64.665621    4.8505178    18351.965   -27184.489    112.18837    86.199677    124.58341    26.900213    30.267018    30.141448 
 5075000   -27143.114   -27203.423    60.308181    300.23449    403.02936   -27502.846    6854.4319   -10827.532   -23529.745    279.42626    65.343423    4.9821896    18315.941   -27138.507    112.14409    86.566519     124.3233    26.841518    30.159735    30.184548 
 5076000   -27147.128    -27207.49    60.361516    300.50001   -1376.8356   -27501.545    6848.1037   -10819.816   -23529.833    273.60792     62.88474    4.8488579    18303.217   -27162.857     112.2187    86.112404    124.48569     26.95178    30.241753      29.9851 
 5077000   -27145.408   -27205.142    59.734033    297.37618     3109.708   -27503.044    6863.0303   -10836.128   -23529.947    275.91188    64.925585    4.5248855    18274.646   -27109.938    112.30841    86.432342    124.42219    26.866345    30.166255      30.1535 
 5078000    -27145.55   -27206.168    60.617923    301.77649    5039.9816   -27501.058    6901.5245   -10871.864   -23530.719    274.28502    64.866853    4.3632063    18270.915   -27088.075    112.31273    86.144078    124.43473    26.869778    30.135114    30.140648 
 5079000   -27147.565   -27206.637    59.072012    294.08042   -662.62305   -27506.805    6848.7804    -10825.31   -23530.276    277.01939    63.371231    4.1195527    18259.929   -27155.117    111.99121    86.450939    124.59408    26.964553    30.117166    30.049008 
 5080000   -27144.724   -27206.894    62.169563    309.50108    1403.5482    -27507.06    6858.9738   -10835.688   -23530.346     278.3497    63.602341     4.812846    18221.502   -27128.762    112.13474    86.369922    124.33501    26.896104    30.124612    29.977453 
 5081000   -27146.877   -27208.043    61.165634    304.50317    1252.0811   -27505.147    6870.6088   -10845.522   -23530.234    277.05748     64.01776    4.9492674    18303.133   -27132.573    112.21178    86.538512    124.38367    26.811083     30.20278    30.196186 
 5082000   -27144.794   -27205.464    60.670568    302.03857    780.34053   -27500.604    6859.5896   -10829.842   -23530.352    273.88596    64.324214    3.4466888    18332.117   -27135.865    112.26734    86.060898    124.46365    26.963851    30.184458    30.074097 
 5083000   -27144.124   -27204.936    60.812819    302.74674   -1897.7515   -27504.816     6837.646   -10812.966   -23529.496    277.65924    64.918505    4.8625521    18332.652   -27165.838    112.25269    86.053914    124.41703    26.940744    30.247158    30.013765 
 5084000   -27148.049   -27207.135    59.086218    294.15114    1616.0846   -27504.189    6863.8942   -10837.605   -23530.478    277.60041    63.891138    4.3514555    18299.754    -27129.59    112.53169    86.090003    124.36318    26.840166    30.196258    30.188229 
 5085000   -27143.304   -27204.786    61.482507    306.08068     2241.328   -27503.495    6860.9992     -10834.3   -23530.194     276.9679    64.780532    4.0529164    18248.466   -27117.776     112.2407    86.465286    124.43436    26.866488     30.22904    30.037196 
 5086000   -27147.624   -27207.924    60.300759    300.19754   -122.33396    -27502.48     6869.223   -10841.667   -23530.036    273.92791    63.299199    3.8920826    18324.481   -27149.023    112.01248    86.177064    124.49813    26.966417    30.137995    30.060498 
 5087000   -27142.999   -27206.341    63.341954    315.33763    1110.6749   -27501.796    6854.5804   -10826.335   -23530.041    273.94243    64.273213    4.1809832    18312.808   -27130.304     112.2184    86.544144    124.50164    26.957214    30.161929    30.141484 
 5088000    -27143.42   -27206.324    62.903627    313.15549   -1622.0487   -27507.912    6837.5668   -10815.715   -23529.764    279.30974    64.427387    4.5481088    18339.346   -27161.987    111.97673    86.633672    124.34024    26.914763    30.132155    30.135466 
 5089000   -27144.363   -27205.649    61.285587    305.10034    3522.5147   -27495.964    6889.3956    -10855.52   -23529.839    270.17961    65.403654    4.4807068    18247.847   -27104.244     112.5975    86.209998    124.58924    26.953475    30.175953    30.127787 
 5090000   -27145.341    -27206.04    60.699179    302.18101   -555.68697   -27506.802       6833.8   -10809.967   -23530.635    279.04798     64.23441    4.8068162    18333.608     -27151.7    112.40877    86.424648    124.31185    26.919895    30.147309    30.192267 
 5090088   -27144.427   -27205.623    61.196606    304.65736    4411.9247   -27500.418    6892.7687   -10863.028   -23530.159     273.9126     63.98151    5.3913778    18294.238    -27094.05    112.47571    86.340213    124.35924    26.935266    30.175106     30.11041 
Loop time of 3098.39 on 25 procs for 1000000 steps with 2025 atoms

Performance: 5.577 ns/day, 4.303 hours/ns, 322.748 timesteps/s
99.7% CPU use with 25 MPI tasks x no OpenMP threads

MPI task timing breakdown:
Section |  min time  |  avg time  |  max time  |%varavg| %total
---------------------------------------------------------------
Pair    | 577.39     | 678.2      | 781.26     | 196.1 | 21.89
Bond    | 2.9665     | 4.2833     | 6.1724     |  39.1 |  0.14
Kspace  | 1761       | 1914.3     | 2017.7     | 148.1 | 61.78
Neigh   | 11.086     | 11.158     | 11.218     |   1.0 |  0.36
Comm    | 191.42     | 289.25     | 387.31     | 314.5 |  9.34
Output  | 0.093202   | 0.10702    | 0.10904    |   0.9 |  0.00
Modify  | 173.35     | 181.3      | 190.31     |  29.7 |  5.85
Other   |            | 19.8       |            |       |  0.64

Nlocal:    81 ave 96 max 66 min
Histogram: 1 1 4 4 2 2 7 1 1 2
Nghost:    4271.6 ave 4341 max 4211 min
Histogram: 3 4 3 2 2 2 0 2 4 3
Neighs:    105.28 ave 276 max 0 min
Histogram: 5 2 2 5 3 5 0 0 2 1

Total # of neighbors = 2632
Ave neighs/atom = 1.29975
Ave special neighs/atom = 1.02222
Neighbor list builds = 9543
Dangerous builds = 0
unfix npt_xy

dump coord1 all custom 10000 travis.lammpstrj id type mass q element xu yu zu vx vy vz
dump_modify coord1 element Ca Si O O O O H H every 10000
ERROR: Illegal dump_modify command (../dump.cpp:1143)
Last command: dump_modify coord1 element Ca Si O O O O H H every 10000
